
                                 *****************
                                 * O   R   C   A *
                                 *****************

                                            #,                                       
                                            ###                                      
                                            ####                                     
                                            #####                                    
                                            ######                                   
                                           ########,                                 
                                     ,,################,,,,,                         
                               ,,#################################,,                 
                          ,,##########################################,,             
                       ,#########################################, ''#####,          
                    ,#############################################,,   '####,        
                  ,##################################################,,,,####,       
                ,###########''''           ''''###############################       
              ,#####''   ,,,,##########,,,,          '''####'''          '####       
            ,##' ,,,,###########################,,,                        '##       
           ' ,,###''''                  '''############,,,                           
         ,,##''                                '''############,,,,        ,,,,,,###''
      ,#''                                            '''#######################'''  
     '                                                          ''''####''''         
             ,#######,   #######,   ,#######,      ##                                
            ,#'     '#,  ##    ##  ,#'     '#,    #''#        ,####,   ,####,        
            ##       ##  ##   ,#'  ##            #'  '#       #'       #'  '#        
            ##       ##  #######   ##           ,######,      #####,   #    #        
            '#,     ,#'  ##    ##  '#,     ,#' ,#      #,     #,   #   #,  ,#        
             '#######'   ##     ##  '#######'  #'      '#     '####' # '####'        



                #########################################################
                #                        -***-                          #
                #          Department of theory and spectroscopy        #
                #                                                       #
                #                      Frank Neese                      #
                #                                                       #
                #     Directorship, Architecture, Infrastructure        #
                #                    SHARK, DRIVERS                     #
                #        Core code/Algorithms in most modules           #
                #                                                       #
                #        Max Planck Institute fuer Kohlenforschung      #
                #                Kaiser Wilhelm Platz 1                 #
                #                 D-45470 Muelheim/Ruhr                 #
                #                      Germany                          #
                #                                                       #
                #                  All rights reserved                  #
                #                        -***-                          #
                #########################################################


                         Program Version 6.0.1  -  RELEASE   -


 With contributions from (in alphabetic order):
[Max-Planck-Institut fuer Kohlenforschung]                               
  Daniel Aravena         : Magnetic Suceptibility                        
  Michael Atanasov       : Ab Initio Ligand Field Theory (pilot matlab implementation)
  Alexander A. Auer      : GIAO ZORA, VPT2 properties, NMR spectrum      
  Ute Becker             : All parallelization in ORCA, NUMFREQ, NUMCALC 
  Giovanni Bistoni       : ED, misc. LED, open-shell LED, HFLD           
  Martin Brehm           : Molecular dynamics                            
  Dmytro Bykov           : pre 5.0 version of the SCF Hessian            
  Marcos Casanova-Páez   : Triplet and SCS-CIS(D). UHF-(DLPNO)-IP/EA/STEOM-CCSD. UHF-CVS-IP/STEOM-CCSD   
  Vijay G. Chilkuri      : MRCI spin determinant printing, contributions to CSF-ICE 
  Pauline Colinet        : FMM embedding                                 
  Dipayan Datta          : RHF DLPNO-CCSD density                        
  Achintya Kumar Dutta   : EOM-CC, STEOM-CC                              
  Nicolas Foglia         : Exact transition moments, OPA infrastructure, MCD improvements    
  Dmitry Ganyushin       : Spin-Orbit,Spin-Spin,Magnetic field MRCI      
  Miquel Garcia-Rates    : C-PCM and meta-GGA Hessian, CCSD/C-PCM, Gaussian charge scheme 
  Tiago L. C. Gouveia    : GS-ROHF, GS-ROCIS                             
  Yang Guo               : DLPNO-NEVPT2, F12-NEVPT2, CIM, IAO-localization        
  Andreas Hansen         : Spin unrestricted coupled pair/coupled cluster methods 
  Ingolf Harden          : AUTO-CI MPn and infrastructure                
  Benjamin Helmich-Paris : MC-RPA, TRAH-(SCF,CASSCF), AVAS, COSX integrals, SCF dyn. polar. 
  Lee Huntington         : MR-EOM, pCC                                   
  Robert Izsak           : Overlap fitted RIJCOSX, COSX-SCS-MP3, EOM     
  Riya Kayal             : Wick's Theorem for AUTO-CI, AUTO-CI UHF-CCSDT 
  Emily Kempfer          : AUTO-CI, RHF CISDT and CCSDT                  
  Christian Kollmar      : KDIIS, OOCD, Brueckner-CCSD(T), CCSD density, CASPT2, CASPT2-K, improved NEVPT2 
  Axel Koslowski         : Symmetry handling                             
  Simone Kossmann        : meta-GGA functionals, TD-DFT gradient, OOMP2, (MP2 Hessian; deprecated post 5.0) 
  Lucas Lang             : DCDCAS                                        
  Marvin Lechner         : AUTO-CI (C++ implementation), FIC-MRCC        
  Spencer Leger          : CASSCF response                               
  Dagmar Lenk            : GEPOL surface, SMD, ORCA-2-JSON               
  Dimitrios Liakos       : Extrapolation schemes; Compound Job, initial MDCI parallelization 
  Dimitrios Manganas     : Further ROCIS development; embedding schemes. LFT, Crystal Embedding 
  Dimitrios Pantazis     : SARC Basis sets                               
  Anastasios Papadopoulos: AUTO-CI, single reference methods and gradients 
  Taras Petrenko         : pre 6.0 DFT Hessian and TD-DFT gradient, (ASA, deprecated), ECA, 1-Electron XAS/XES, NRVS 
  Peter Pinski           : DLPNO-MP2, DLPNO-MP2 Gradient                 
  Christoph Reimann      : Effective Core Potentials                     
  Marius Retegan         : Local ZFS, SOC                                
  Christoph Riplinger    : Optimizer, TS searches, QM/MM, DLPNO-CCSD(T), (RO)-DLPNO pert. Triples 
  Michael Roemelt        : Original ROCIS implementation                 
  Masaaki Saitow         : Open-shell DLPNO-CCSD energy and density      
  Barbara Sandhoefer     : DKH picture change effects                    
  Kantharuban Sivalingam : CASSCF convergence/infrastructure, NEVPT2 and variants, FIC-MRCI 
  Bernardo de Souza      : ESD, SOC TD-DFT                               
  Georgi L. Stoychev     : AutoAux, RI-MP2 NMR, DLPNO-MP2 response, X2C  
  Van Anh Tran           : RI-MP2 g-tensors                              
  Willem Van den Heuvel  : Paramagnetic NMR                              
  Zikuan Wang            : NOTCH, Electric field optimization            
  Frank Wennmohs         : Technical directorship and infrastructure     
  Hang Xu                : AUTO-CI-Response properties                   
                                                                         
[FACCTs GmbH]                                                            
  Markus Bursch, Miquel Garcia-Rates, Christoph Riplinger, Bernardo de Souza, Georgi L. Stoychev 
                                                                 
  APM, Basis sets (HGBS, AHGBS, def-TZVP (Ac-Lr), def2-XVPD (La-Lu)), CI-OPT, improved COSX, DLPNO-Multilevel,           
  DOCKER, DRACO, updates on ESD, GOAT, IRC, LR-CPCM, MBIS, meta-GGA TD-DFT gradient, ML-optimized integration grids, 
  MM, NACMEs, nearIR, NEB, NEB-TS, NL-DFT gradient (VV10), 2- and 3-layer-ONIOM, interface openCOSMO-RS, QMMM,   
  Crystal-QMMM, SF, symmetry and pop. for TD-DFT, r2SCAN hybrids, SOLVATOR                                   
                                                                         
[Other institutions]                                                     
  V. Asgeirsson          : NEB                                           
  Christoph Bannwarth    : sTDA-DFT, sTD-DFT, PBEh-3c, B97-3c, D3        
  Sebastian Ehlert       : rSCAN, r2SCAN, r2SCAN-3c, D4, dhf basis sets  
  Marvin Friede          : D4 for Fr, Ra, Ac-Lr                          
  Lars Goerigk           : TD-DFT with DH, B97 family of functionals     
  Stefan Grimme          : VdW corrections, initial TS optimization, DFT functionals, gCP, sTDA/sTD-DF 
  Waldemar Hujo          : DFT-NL                                        
  H. Jonsson             : NEB                                           
  Holger Kruse           : gCP                                           
  Marcel Mueller         : wB97X-3c, vDZP basis set                      
  Hagen Neugebauer       : wr2SCAN                                       
  Tobias Risthaus        : range-separated hybrid DFT                    
  Lukas Wittmann         : regularized MP2, r2SCAN double-hybrids, wr2SCAN        
                                                                         
We gratefully acknowledge several colleagues who have allowed us to      
interface, adapt or use parts of their codes:                            
  Ed Valeev, F. Pavosevic, A. Kumar             : LibInt (2-el integral package), F12 methods 
  Garnet Chan, S. Sharma, J. Yang, R. Olivares  : DMRG                   
  Ulf Ekstrom                                   : XCFun DFT Library      
  Mihaly Kallay                                 : mrcc  (arbitrary order and MRCC methods)
  Frank Weinhold                                : gennbo (NPA and NBO analysis)           
  Simon Mueller                                 : openCOSMO-RS                            
  Christopher J. Cramer and Donald G. Truhlar   : smd solvation model                     
  S Lehtola, MJT Oliveira, MAL Marques          : LibXC Library                           
  Liviu Ungur et al                             : ANISO software                          


 Your calculation uses the libint2 library for the computation of 2-el integrals
 For citations please refer to: http://libint.valeyev.net

 Your ORCA version has been built with support for libXC version: 6.2.2
 For citations please refer to: https://libxc.gitlab.io

 This ORCA versions uses:
   CBLAS   interface :  Fast vector & matrix operations
   LAPACKE interface :  Fast linear algebra routines
   SCALAPACK package :  Parallel linear algebra routines
   Shared memory     :  Shared parallel matrices
   BLAS/LAPACK       :  OpenBLAS 0.3.27  USE64BITINT DYNAMIC_ARCH NO_AFFINITY Cooperlake SINGLE_THREADED
        Core in use  :  Cooperlake
   Copyright (c) 2011-2014, The OpenBLAS Project


NOTE: MaxCore=2000 MB was set to SCF,MP2,MDCI,CIPSI,MRCI and CIS
      => If you want to overwrite this, your respective input block should be placed after the MaxCore statement


***************************************
The coordinates will be read from file: water.xyz
***************************************


================================================================================

================================================================================
                                        WARNINGS
                       Please study these warnings very carefully!
================================================================================


WARNING: Geometry Optimization
  ===> : Switching off AutoStart
         For restart on a previous wavefunction, please use MOREAD

Using external energy/gradient program given in input:
  "/mmhome/boittier/home/mmml/examples/orca/mmml-orca-client"


WARNING: four-center integrals in TRAH must be done with SHARK!
  ===> : Turning Shark on


================================================================================
                                       INPUT FILE
================================================================================
NAME = water_opt.inp
|  1> ! ExtOpt Opt
|  2> %maxcore 2000
|  3> 
|  4> %method
|  5>   ProgExt "/mmhome/boittier/home/mmml/examples/orca/mmml-orca-client"
|  6>   Ext_Params "-b 127.0.0.1:8888"
|  7> end
|  8> 
|  9> * xyzfile 0 1 water.xyz
| 10> 
| 11>                          ****END OF INPUT****
================================================================================

                       *****************************
                       * Geometry Optimization Run *
                       *****************************

Geometry optimization settings:
Update method            Update   .... BFGS
Choice of coordinates    CoordSys .... (2022) Redundant Internals
Initial Hessian          InHess   .... Almloef's Model
Max. no of cycles        MaxIter  .... 50

Convergence Tolerances:
Energy Change            TolE     ....  5.0000e-06 Eh
Max. Gradient            TolMAXG  ....  3.0000e-04 Eh/bohr
RMS Gradient             TolRMSG  ....  1.0000e-04 Eh/bohr
Max. Displacement        TolMAXD  ....  4.0000e-03 bohr
RMS Displacement         TolRMSD  ....  2.0000e-03 bohr
Strict Convergence                .... False

------------------------------------------------------------------------------
                        ORCA OPTIMIZATION COORDINATE SETUP
------------------------------------------------------------------------------

The optimization will be done in redundant internal coordinates (2022)
Making redundant internal coordinates   ...  (2022 redundants) done
Evaluating the initial hessian          ...  (Almloef) done
Evaluating the coordinates              ...  done
Calculating the B-matrix                .... done
Calculating the G-matrix                .... done
Diagonalizing the G-matrix              .... done
The first mode is                       ....    0
The number of degrees of freedom        ....    3

    -----------------------------------------------------------------
                    Redundant Internal Coordinates


    -----------------------------------------------------------------
         Definition                    Initial Value    Approx d2E/dq
    -----------------------------------------------------------------
      1. B(H   1,O   0)                  0.9578         0.524222   
      2. B(H   2,O   0)                  0.9578         0.524222   
      3. A(H   1,O   0,H   2)          104.4798         0.322697   
    -----------------------------------------------------------------

Number of atoms                         .... 3
Number of degrees of freedom            .... 3


         *************************************************************
         *                GEOMETRY OPTIMIZATION CYCLE   1            *
         *************************************************************
---------------------------------
CARTESIAN COORDINATES (ANGSTROEM)
---------------------------------
  O      0.000000    0.000000    0.117300
  H      0.000000    0.757200   -0.469200
  H      0.000000   -0.757200   -0.469200

----------------------------
CARTESIAN COORDINATES (A.U.)
----------------------------
  NO LB      ZA    FRAG     MASS         X           Y           Z
   0 O     8.0000    0    15.999    0.000000    0.000000    0.221665
   1 H     1.0000    0     1.008    0.000000    1.430901   -0.886660
   2 H     1.0000    0     1.008    0.000000   -1.430901   -0.886660

--------------------------------
INTERNAL COORDINATES (ANGSTROEM)
--------------------------------
 O      0   0   0     0.000000000000     0.00000000     0.00000000
 H      1   0   0     0.957775594803     0.00000000     0.00000000
 H      1   2   0     0.957775594803   104.47983882     0.00000000

---------------------------
INTERNAL COORDINATES (A.U.)
---------------------------
 O      0   0   0     0.000000000000     0.00000000     0.00000000
 H      1   0   0     1.809933571931     0.00000000     0.00000000
 H      1   2   0     1.809933571931   104.47983882     0.00000000

Calling /mmhome/boittier/home/mmml/examples/orca/mmml-orca-client water_opt_EXT.extinp.tmp -b 127.0.0.1:8888  ... 


External program completed successfully in 0.830 sec

-------------------------------------------------   --------------------
FINAL SINGLE POINT ENERGY (From external program)        -0.429000473244
-------------------------------------------------   --------------------


------------------
CARTESIAN GRADIENT
------------------

   1   O   :   -0.000000000   -0.000000000    0.022449142
   2   H   :   -0.000000000    0.016848842   -0.011224571
   3   H   :   -0.000000000   -0.016848842   -0.011224571

Difference to translation invariance:
           :    0.0000000000    0.0000000000   -0.0000000000

Difference to rotation invariance:
           :    0.0000000000    0.0000000000    0.0000000000

Norm of the Cartesian gradient     ...    0.0363828658
RMS gradient                       ...    0.0121276219
MAX gradient                       ...    0.0224491421
------------------------------------------------------------------------------
                         ORCA GEOMETRY RELAXATION STEP
------------------------------------------------------------------------------

Reading the OPT-File                    .... done
Getting information on internals        .... done
Copying old internal coords+grads       .... done
Making the new internal coordinates     .... (2022 redundants) done
Validating the new internal coordinates .... (2022 redundants) done
Calculating the B-matrix                .... done
Calculating the G,G- and P matrices     .... done
Transforming gradient to internals      .... done
Projecting the internal gradient        .... done
Number of atoms                         ....   3
Number of internal coordinates          ....   3
Current Energy                          ....    -0.429000473 Eh
Current gradient norm                   ....     0.036382866 Eh/bohr
Maximum allowed component of the step   ....  0.300
Current trust radius                    ....  0.300
Evaluating the initial hessian          ....  (Almloef) done
Projecting the Hessian                  .... done
Forming the augmented Hessian           .... done
Diagonalizing the augmented Hessian     .... done
Last element of RFO vector              ....  0.998495896
Lowest eigenvalues of augmented Hessian:
 -0.001572192  0.322717575  0.524222476
Length of the computed step             ....  0.054909086
The final length of the internal step   ....  0.054909086
Converting the step to Cartesian space:
 Initial RMS(Int)=    0.0317017753
Transforming coordinates:
 Iter   0:  RMS(Cart)=    0.0171145236 RMS(Int)=    0.0317046132
done
Storing new coordinates                 .... done

                                .--------------------.
          ----------------------|Geometry convergence|-------------------------
          Item                value                   Tolerance       Converged
          ---------------------------------------------------------------------
          RMS gradient        0.0165570493            0.0001000000      NO
          MAX gradient        0.0201938264            0.0003000000      NO
          RMS step            0.0317017753            0.0020000000      NO
          MAX step            0.0384062974            0.0040000000      NO
          ........................................................
          Max(Bonds)      0.0203      Max(Angles)    0.46
          Max(Dihed)        0.00      Max(Improp)    0.00
          ---------------------------------------------------------------------

The optimization has not yet converged - more geometry cycles are needed


    ---------------------------------------------------------------------------
                         Redundant Internal Coordinates
                            (Angstroem and degrees)

        Definition                    Value    dE/dq     Step     New-Value
    ----------------------------------------------------------------------------
     1. B(H   1,O   0)                0.9578  0.020194 -0.0203    0.9375   
     2. B(H   2,O   0)                0.9578  0.020194 -0.0203    0.9375   
     3. A(H   1,O   0,H   2)          104.48  0.002613   -0.46    104.02   
    ----------------------------------------------------------------------------

Geometry step timings:
Preparation and reading OPT file:      0.001 s (15.866 %)
Internal coordinates            :      0.000 s ( 0.178 %)
B/P matrices and projection     :      0.000 s ( 1.398 %)
Hessian update/contruction      :      0.002 s (47.038 %)
Making the step                 :      0.000 s ( 0.661 %)
Converting the step to Cartesian:      0.000 s ( 0.432 %)
Storing new data                :      0.000 s ( 8.162 %)
Checking convergence            :      0.000 s ( 0.025 %)
Final printing                  :      0.001 s (26.138 %)
Total time                      :      0.004 s

Time for energy+gradient        :      0.847 s
Time for complete geometry iter :      0.995 s

         *************************************************************
         *                GEOMETRY OPTIMIZATION CYCLE   2            *
         *************************************************************
---------------------------------
CARTESIAN COORDINATES (ANGSTROEM)
---------------------------------
  O      0.000000   -0.000000    0.110990
  H      0.000000    0.738814   -0.466045
  H      0.000000   -0.738814   -0.466045

----------------------------
CARTESIAN COORDINATES (A.U.)
----------------------------
  NO LB      ZA    FRAG     MASS         X           Y           Z
   0 O     8.0000    0    15.999    0.000000   -0.000000    0.209742
   1 H     1.0000    0     1.008    0.000000    1.396156   -0.880698
   2 H     1.0000    0     1.008    0.000000   -1.396156   -0.880698

--------------------------------
INTERNAL COORDINATES (ANGSTROEM)
--------------------------------
 O      0   0   0     0.000000000000     0.00000000     0.00000000
 H      1   0   0     0.937451857432     0.00000000     0.00000000
 H      1   2   0     0.937451857432   104.01818877     0.00000000

---------------------------
INTERNAL COORDINATES (A.U.)
---------------------------
 O      0   0   0     0.000000000000     0.00000000     0.00000000
 H      1   0   0     1.771527274282     0.00000000     0.00000000
 H      1   2   0     1.771527274282   104.01818877     0.00000000

Calling /mmhome/boittier/home/mmml/examples/orca/mmml-orca-client water_opt_EXT.extinp.tmp -b 127.0.0.1:8888  > water_opt.lastext ...  done

External program completed successfully in 0.521 sec
------------------------------------------------------------------------------
                         ORCA GEOMETRY RELAXATION STEP
------------------------------------------------------------------------------

Reading the OPT-File                    .... done
Getting information on internals        .... done
Copying old internal coords+grads       .... done
Making the new internal coordinates     .... (2022 redundants) done
Validating the new internal coordinates .... (2022 redundants) done
Calculating the B-matrix                .... done
Calculating the G,G- and P matrices     .... done
Transforming gradient to internals      .... done
Projecting the internal gradient        .... done
Number of atoms                         ....   3
Number of internal coordinates          ....   3
Current Energy                          ....    -0.430289322 Eh
Current gradient norm                   ....     0.024511058 Eh/bohr
Maximum allowed component of the step   ....  0.300
Current trust radius                    ....  0.300
Updating the Hessian (BFGS)             .... done
Forming the augmented Hessian           .... done
Diagonalizing the augmented Hessian     .... done
Last element of RFO vector              ....  0.993017205
Lowest eigenvalues of augmented Hessian:
 -0.002324349  0.163740925  0.330962790
Length of the computed step             ....  0.118799168
The final length of the internal step   ....  0.118799168
Converting the step to Cartesian space:
 Initial RMS(Int)=    0.0685887315
Transforming coordinates:
 Iter   0:  RMS(Cart)=    0.0378343158 RMS(Int)=    0.0686206204
done
Storing new coordinates                 .... done
The predicted energy change is          ....    -0.001178577
Previously predicted energy change      ....    -0.000788466
Actually observed energy change         ....    -0.001288849
Ratio of predicted to observed change   ....     1.634628741
New trust radius                        ....     0.200000000

                                .--------------------.
          ----------------------|Geometry convergence|-------------------------
          Item                value                   Tolerance       Converged
          ---------------------------------------------------------------------
          Energy change      -0.0012888492            0.0000050000      NO
          RMS gradient        0.0113285207            0.0001000000      NO
          MAX gradient        0.0137656764            0.0003000000      NO
          RMS step            0.0685887315            0.0020000000      NO
          MAX step            0.0823113920            0.0040000000      NO
          ........................................................
          Max(Bonds)      0.0436      Max(Angles)    1.36
          Max(Dihed)        0.00      Max(Improp)    0.00
          ---------------------------------------------------------------------

The optimization has not yet converged - more geometry cycles are needed


    ---------------------------------------------------------------------------
                         Redundant Internal Coordinates
                            (Angstroem and degrees)

        Definition                    Value    dE/dq     Step     New-Value
    ----------------------------------------------------------------------------
     1. B(H   1,O   0)                0.9375  0.013766 -0.0436    0.8939   
     2. B(H   2,O   0)                0.9375  0.013766 -0.0436    0.8939   
     3. A(H   1,O   0,H   2)          104.02  0.002453   -1.36    102.66   
    ----------------------------------------------------------------------------

Geometry step timings:
Preparation and reading OPT file:      0.001 s (13.341 %)
Internal coordinates            :      0.000 s ( 0.131 %)
B/P matrices and projection     :      0.000 s ( 1.088 %)
Hessian update/contruction      :      0.003 s (56.039 %)
Making the step                 :      0.000 s ( 0.457 %)
Converting the step to Cartesian:      0.000 s ( 0.196 %)
Storing new data                :      0.000 s ( 6.855 %)
Checking convergence            :      0.000 s ( 0.065 %)
Final printing                  :      0.001 s (21.763 %)
Total time                      :      0.005 s

Time for energy+gradient        :      0.534 s
Time for complete geometry iter :      0.554 s

         *************************************************************
         *                GEOMETRY OPTIMIZATION CYCLE   3            *
         *************************************************************
---------------------------------
CARTESIAN COORDINATES (ANGSTROEM)
---------------------------------
  O      0.000000   -0.000000    0.098662
  H      0.000000    0.697909   -0.459881
  H      0.000000   -0.697909   -0.459881

----------------------------
CARTESIAN COORDINATES (A.U.)
----------------------------
  NO LB      ZA    FRAG     MASS         X           Y           Z
   0 O     8.0000    0    15.999    0.000000   -0.000000    0.186444
   1 H     1.0000    0     1.008    0.000000    1.318857   -0.869049
   2 H     1.0000    0     1.008    0.000000   -1.318857   -0.869049

--------------------------------
INTERNAL COORDINATES (ANGSTROEM)
--------------------------------
 O      0   0   0     0.000000000000     0.00000000     0.00000000
 H      1   0   0     0.893894545444     0.00000000     0.00000000
 H      1   2   0     0.893894545444   102.65880244     0.00000000

---------------------------
INTERNAL COORDINATES (A.U.)
---------------------------
 O      0   0   0     0.000000000000     0.00000000     0.00000000
 H      1   0   0     1.689215883494     0.00000000     0.00000000
 H      1   2   0     1.689215883494   102.65880244     0.00000000

Calling /mmhome/boittier/home/mmml/examples/orca/mmml-orca-client water_opt_EXT.extinp.tmp -b 127.0.0.1:8888  > water_opt.lastext ...  done

External program completed successfully in 0.519 sec
------------------------------------------------------------------------------
                         ORCA GEOMETRY RELAXATION STEP
------------------------------------------------------------------------------

Reading the OPT-File                    .... done
Getting information on internals        .... done
Copying old internal coords+grads       .... done
Making the new internal coordinates     .... (2022 redundants) done
Validating the new internal coordinates .... (2022 redundants) done
Calculating the B-matrix                .... done
Calculating the G,G- and P matrices     .... done
Transforming gradient to internals      .... done
Projecting the internal gradient        .... done
Number of atoms                         ....   3
Number of internal coordinates          ....   3
Current Energy                          ....    -0.430682338 Eh
Current gradient norm                   ....     0.034573947 Eh/bohr
Maximum allowed component of the step   ....  0.300
Current trust radius                    ....  0.200
Updating the Hessian (BFGS)             .... done
Forming the augmented Hessian           .... done
Diagonalizing the augmented Hessian     .... done
Last element of RFO vector              ....  0.997542177
Lowest eigenvalues of augmented Hessian:
 -0.002001960  0.326800941  0.409617864
Length of the computed step             ....  0.070241214
The final length of the internal step   ....  0.070241214
Converting the step to Cartesian space:
 Initial RMS(Int)=    0.0405537839
Transforming coordinates:
 Iter   0:  RMS(Cart)=    0.0224618595 RMS(Int)=    0.0405372949
done
Storing new coordinates                 .... done
The predicted energy change is          ....    -0.001005919
Previously predicted energy change      ....    -0.001178577
Actually observed energy change         ....    -0.000393016
Ratio of predicted to observed change   ....     0.333466436
New trust radius                        ....     0.133333333

                                .--------------------.
          ----------------------|Geometry convergence|-------------------------
          Item                value                   Tolerance       Converged
          ---------------------------------------------------------------------
          Energy change      -0.0003930158            0.0000050000      NO
          RMS gradient        0.0164703177            0.0001000000      NO
          MAX gradient        0.0198065589            0.0003000000      NO
          RMS step            0.0405537839            0.0020000000      NO
          MAX step            0.0483202707            0.0040000000      NO
          ........................................................
          Max(Bonds)      0.0256      Max(Angles)    0.93
          Max(Dihed)        0.00      Max(Improp)    0.00
          ---------------------------------------------------------------------

The optimization has not yet converged - more geometry cycles are needed


    ---------------------------------------------------------------------------
                         Redundant Internal Coordinates
                            (Angstroem and degrees)

        Definition                    Value    dE/dq     Step     New-Value
    ----------------------------------------------------------------------------
     1. B(H   1,O   0)                0.8939 -0.019807  0.0256    0.9195   
     2. B(H   2,O   0)                0.8939 -0.019807  0.0256    0.9195   
     3. A(H   1,O   0,H   2)          102.66 -0.005405    0.93    103.59   
    ----------------------------------------------------------------------------

Geometry step timings:
Preparation and reading OPT file:      0.001 s (14.453 %)
Internal coordinates            :      0.000 s ( 0.146 %)
B/P matrices and projection     :      0.000 s ( 1.194 %)
Hessian update/contruction      :      0.002 s (52.011 %)
Making the step                 :      0.000 s ( 0.439 %)
Converting the step to Cartesian:      0.000 s ( 0.195 %)
Storing new data                :      0.000 s ( 8.262 %)
Checking convergence            :      0.000 s ( 0.073 %)
Final printing                  :      0.001 s (23.203 %)
Total time                      :      0.004 s

Time for energy+gradient        :      0.532 s
Time for complete geometry iter :      0.551 s

         *************************************************************
         *                GEOMETRY OPTIMIZATION CYCLE   4            *
         *************************************************************
---------------------------------
CARTESIAN COORDINATES (ANGSTROEM)
---------------------------------
  O      0.000000   -0.000000    0.105412
  H      0.000000    0.722518   -0.463256
  H      0.000000   -0.722518   -0.463256

----------------------------
CARTESIAN COORDINATES (A.U.)
----------------------------
  NO LB      ZA    FRAG     MASS         X           Y           Z
   0 O     8.0000    0    15.999    0.000000   -0.000000    0.199200
   1 H     1.0000    0     1.008    0.000000    1.365361   -0.875427
   2 H     1.0000    0     1.008    0.000000   -1.365361   -0.875427

--------------------------------
INTERNAL COORDINATES (ANGSTROEM)
--------------------------------
 O      0   0   0     0.000000000000     0.00000000     0.00000000
 H      1   0   0     0.919464532500     0.00000000     0.00000000
 H      1   2   0     0.919464532500   103.58997925     0.00000000

---------------------------
INTERNAL COORDINATES (A.U.)
---------------------------
 O      0   0   0     0.000000000000     0.00000000     0.00000000
 H      1   0   0     1.737536156280     0.00000000     0.00000000
 H      1   2   0     1.737536156280   103.58997925     0.00000000

Calling /mmhome/boittier/home/mmml/examples/orca/mmml-orca-client water_opt_EXT.extinp.tmp -b 127.0.0.1:8888  > water_opt.lastext ...  done

External program completed successfully in 0.517 sec
------------------------------------------------------------------------------
                         ORCA GEOMETRY RELAXATION STEP
------------------------------------------------------------------------------

Reading the OPT-File                    .... done
Getting information on internals        .... done
Copying old internal coords+grads       .... done
Making the new internal coordinates     .... (2022 redundants) done
Validating the new internal coordinates .... (2022 redundants) done
Calculating the B-matrix                .... done
Calculating the G,G- and P matrices     .... done
Transforming gradient to internals      .... done
Projecting the internal gradient        .... done
Number of atoms                         ....   3
Number of internal coordinates          ....   3
Current Energy                          ....    -0.431099992 Eh
Current gradient norm                   ....     0.010095239 Eh/bohr
Maximum allowed component of the step   ....  0.300
Current trust radius                    ....  0.133
Updating the Hessian (BFGS)             .... done
Forming the augmented Hessian           .... done
Diagonalizing the augmented Hessian     .... done
Last element of RFO vector              ....  0.999876184
Lowest eigenvalues of augmented Hessian:
 -0.000129885  0.327908980  0.524222476
Length of the computed step             ....  0.015737795
The final length of the internal step   ....  0.015737795
Converting the step to Cartesian space:
 Initial RMS(Int)=    0.0090862199
Transforming coordinates:
 Iter   0:  RMS(Cart)=    0.0050079331 RMS(Int)=    0.0090868221
done
Storing new coordinates                 .... done
The predicted energy change is          ....    -0.000064958
Previously predicted energy change      ....    -0.001005919
Actually observed energy change         ....    -0.000417654
Ratio of predicted to observed change   ....     0.415196321
New trust radius                        ....     0.100000000

                                .--------------------.
          ----------------------|Geometry convergence|-------------------------
          Item                value                   Tolerance       Converged
          ---------------------------------------------------------------------
          Energy change      -0.0004176537            0.0000050000      NO
          RMS gradient        0.0047683079            0.0001000000      NO
          MAX gradient        0.0057564339            0.0003000000      NO
          RMS step            0.0090862199            0.0020000000      NO
          MAX step            0.0108902960            0.0040000000      NO
          ........................................................
          Max(Bonds)      0.0058      Max(Angles)    0.19
          Max(Dihed)        0.00      Max(Improp)    0.00
          ---------------------------------------------------------------------

The optimization has not yet converged - more geometry cycles are needed


    ---------------------------------------------------------------------------
                         Redundant Internal Coordinates
                            (Angstroem and degrees)

        Definition                    Value    dE/dq     Step     New-Value
    ----------------------------------------------------------------------------
     1. B(H   1,O   0)                0.9195  0.005756 -0.0058    0.9137   
     2. B(H   2,O   0)                0.9195  0.005756 -0.0058    0.9137   
     3. A(H   1,O   0,H   2)          103.59  0.001392   -0.19    103.40   
    ----------------------------------------------------------------------------

Geometry step timings:
Preparation and reading OPT file:      0.001 s (15.206 %)
Internal coordinates            :      0.000 s ( 0.133 %)
B/P matrices and projection     :      0.000 s ( 0.996 %)
Hessian update/contruction      :      0.002 s (48.030 %)
Making the step                 :      0.000 s ( 0.376 %)
Converting the step to Cartesian:      0.000 s ( 0.177 %)
Storing new data                :      0.000 s ( 7.548 %)
Checking convergence            :      0.000 s ( 0.111 %)
Final printing                  :      0.001 s (27.379 %)
Total time                      :      0.005 s

Time for energy+gradient        :      0.531 s
Time for complete geometry iter :      0.551 s

         *************************************************************
         *                GEOMETRY OPTIMIZATION CYCLE   5            *
         *************************************************************
---------------------------------
CARTESIAN COORDINATES (ANGSTROEM)
---------------------------------
  O      0.000000   -0.000000    0.103810
  H      0.000000    0.717074   -0.462455
  H      0.000000   -0.717074   -0.462455

----------------------------
CARTESIAN COORDINATES (A.U.)
----------------------------
  NO LB      ZA    FRAG     MASS         X           Y           Z
   0 O     8.0000    0    15.999    0.000000   -0.000000    0.196173
   1 H     1.0000    0     1.008    0.000000    1.355073   -0.873913
   2 H     1.0000    0     1.008    0.000000   -1.355073   -0.873913

--------------------------------
INTERNAL COORDINATES (ANGSTROEM)
--------------------------------
 O      0   0   0     0.000000000000     0.00000000     0.00000000
 H      1   0   0     0.913701636181     0.00000000     0.00000000
 H      1   2   0     0.913701636181   103.40448698     0.00000000

---------------------------
INTERNAL COORDINATES (A.U.)
---------------------------
 O      0   0   0     0.000000000000     0.00000000     0.00000000
 H      1   0   0     1.726645860498     0.00000000     0.00000000
 H      1   2   0     1.726645860498   103.40448698     0.00000000

Calling /mmhome/boittier/home/mmml/examples/orca/mmml-orca-client water_opt_EXT.extinp.tmp -b 127.0.0.1:8888  > water_opt.lastext ...  done

External program completed successfully in 0.519 sec
------------------------------------------------------------------------------
                         ORCA GEOMETRY RELAXATION STEP
------------------------------------------------------------------------------

Reading the OPT-File                    .... done
Getting information on internals        .... done
Copying old internal coords+grads       .... done
Making the new internal coordinates     .... (2022 redundants) done
Validating the new internal coordinates .... (2022 redundants) done
Calculating the B-matrix                .... done
Calculating the G,G- and P matrices     .... done
Transforming gradient to internals      .... done
Projecting the internal gradient        .... done
Number of atoms                         ....   3
Number of internal coordinates          ....   3
Current Energy                          ....    -0.431156838 Eh
Current gradient norm                   ....     0.004932827 Eh/bohr
Maximum allowed component of the step   ....  0.300
Current trust radius                    ....  0.100
Updating the Hessian (BFGS)             .... done
Forming the augmented Hessian           .... done
Diagonalizing the augmented Hessian     .... done
Last element of RFO vector              ....  0.999885796
Lowest eigenvalues of augmented Hessian:
 -0.000061085  0.265518109  0.331728677
Length of the computed step             ....  0.015114447
The final length of the internal step   ....  0.015114447
Converting the step to Cartesian space:
 Initial RMS(Int)=    0.0087263303
Transforming coordinates:
 Iter   0:  RMS(Cart)=    0.0048211072 RMS(Int)=    0.0087269571
done
Storing new coordinates                 .... done
The predicted energy change is          ....    -0.000030550
Previously predicted energy change      ....    -0.000064958
Actually observed energy change         ....    -0.000056846
Ratio of predicted to observed change   ....     0.875115203
New trust radius                        ....     0.150000000

                                .--------------------.
          ----------------------|Geometry convergence|-------------------------
          Item                value                   Tolerance       Converged
          ---------------------------------------------------------------------
          Energy change      -0.0000568460            0.0000050000      NO
          RMS gradient        0.0023353301            0.0001000000      NO
          MAX gradient        0.0028166407            0.0003000000      NO
          RMS step            0.0087263303            0.0020000000      NO
          MAX step            0.0104397169            0.0040000000      NO
          ........................................................
          Max(Bonds)      0.0055      Max(Angles)    0.19
          Max(Dihed)        0.00      Max(Improp)    0.00
          ---------------------------------------------------------------------

The optimization has not yet converged - more geometry cycles are needed


    ---------------------------------------------------------------------------
                         Redundant Internal Coordinates
                            (Angstroem and degrees)

        Definition                    Value    dE/dq     Step     New-Value
    ----------------------------------------------------------------------------
     1. B(H   1,O   0)                0.9137  0.002817 -0.0055    0.9082   
     2. B(H   2,O   0)                0.9137  0.002817 -0.0055    0.9082   
     3. A(H   1,O   0,H   2)          103.40  0.000703   -0.19    103.22   
    ----------------------------------------------------------------------------

Geometry step timings:
Preparation and reading OPT file:      0.001 s (13.718 %)
Internal coordinates            :      0.000 s ( 0.121 %)
B/P matrices and projection     :      0.000 s ( 1.115 %)
Hessian update/contruction      :      0.002 s (51.478 %)
Making the step                 :      0.000 s ( 0.436 %)
Converting the step to Cartesian:      0.000 s ( 0.194 %)
Storing new data                :      0.000 s ( 9.961 %)
Checking convergence            :      0.000 s ( 0.073 %)
Final printing                  :      0.001 s (22.904 %)
Total time                      :      0.004 s

Time for energy+gradient        :      0.531 s
Time for complete geometry iter :      0.551 s

         *************************************************************
         *                GEOMETRY OPTIMIZATION CYCLE   6            *
         *************************************************************
---------------------------------
CARTESIAN COORDINATES (ANGSTROEM)
---------------------------------
  O      0.000000   -0.000000    0.102296
  H      0.000000    0.711826   -0.461698
  H      0.000000   -0.711826   -0.461698

----------------------------
CARTESIAN COORDINATES (A.U.)
----------------------------
  NO LB      ZA    FRAG     MASS         X           Y           Z
   0 O     8.0000    0    15.999    0.000000   -0.000000    0.193311
   1 H     1.0000    0     1.008    0.000000    1.345157   -0.872483
   2 H     1.0000    0     1.008    0.000000   -1.345157   -0.872483

--------------------------------
INTERNAL COORDINATES (ANGSTROEM)
--------------------------------
 O      0   0   0     0.000000000000     0.00000000     0.00000000
 H      1   0   0     0.908177176037     0.00000000     0.00000000
 H      1   2   0     0.908177176037   103.21908270     0.00000000

---------------------------
INTERNAL COORDINATES (A.U.)
---------------------------
 O      0   0   0     0.000000000000     0.00000000     0.00000000
 H      1   0   0     1.716206143787     0.00000000     0.00000000
 H      1   2   0     1.716206143787   103.21908270     0.00000000

Calling /mmhome/boittier/home/mmml/examples/orca/mmml-orca-client water_opt_EXT.extinp.tmp -b 127.0.0.1:8888  > water_opt.lastext ...  done

External program completed successfully in 0.526 sec
------------------------------------------------------------------------------
                         ORCA GEOMETRY RELAXATION STEP
------------------------------------------------------------------------------

Reading the OPT-File                    .... done
Getting information on internals        .... done
Copying old internal coords+grads       .... done
Making the new internal coordinates     .... (2022 redundants) done
Validating the new internal coordinates .... (2022 redundants) done
Calculating the B-matrix                .... done
Calculating the G,G- and P matrices     .... done
Transforming gradient to internals      .... done
Projecting the internal gradient        .... done
Number of atoms                         ....   3
Number of internal coordinates          ....   3
Current Energy                          ....    -0.431228228 Eh
Current gradient norm                   ....     0.001354704 Eh/bohr
Maximum allowed component of the step   ....  0.300
Current trust radius                    ....  0.150
Updating the Hessian (BFGS)             .... done
Forming the augmented Hessian           .... done
Diagonalizing the augmented Hessian     .... done
Last element of RFO vector              ....  0.999994319
Lowest eigenvalues of augmented Hessian:
 -0.000003895  0.325638436  0.347803767
Length of the computed step             ....  0.003370830
The final length of the internal step   ....  0.003370830
Converting the step to Cartesian space:
 Initial RMS(Int)=    0.0019461494
Transforming coordinates:
 Iter   0:  RMS(Cart)=    0.0010999167 RMS(Int)=    0.0019460989
done
Storing new coordinates                 .... done
The predicted energy change is          ....    -0.000001947
Previously predicted energy change      ....    -0.000030550
Actually observed energy change         ....    -0.000071391
Ratio of predicted to observed change   ....     2.336878194
New trust radius                        ....     0.100000000

                                .--------------------.
          ----------------------|Geometry convergence|-------------------------
          Item                value                   Tolerance       Converged
          ---------------------------------------------------------------------
          Energy change      -0.0000713905            0.0000050000      NO
          RMS gradient        0.0006673257            0.0001000000      NO
          MAX gradient        0.0007922587            0.0003000000      NO
          RMS step            0.0019461494            0.0020000000      YES
          MAX step            0.0022937914            0.0040000000      YES
          ........................................................
          Max(Bonds)      0.0012      Max(Angles)    0.05
          Max(Dihed)        0.00      Max(Improp)    0.00
          ---------------------------------------------------------------------

The optimization has not yet converged - more geometry cycles are needed


    ---------------------------------------------------------------------------
                         Redundant Internal Coordinates
                            (Angstroem and degrees)

        Definition                    Value    dE/dq     Step     New-Value
    ----------------------------------------------------------------------------
     1. B(H   1,O   0)                0.9082 -0.000792  0.0012    0.9094   
     2. B(H   2,O   0)                0.9082 -0.000792  0.0012    0.9094   
     3. A(H   1,O   0,H   2)          103.22 -0.000284    0.05    103.27   
    ----------------------------------------------------------------------------

Geometry step timings:
Preparation and reading OPT file:      0.001 s (13.401 %)
Internal coordinates            :      0.000 s ( 0.149 %)
B/P matrices and projection     :      0.000 s ( 1.090 %)
Hessian update/contruction      :      0.002 s (51.845 %)
Making the step                 :      0.000 s ( 0.446 %)
Converting the step to Cartesian:      0.000 s ( 0.198 %)
Storing new data                :      0.000 s ( 8.199 %)
Checking convergence            :      0.000 s ( 0.074 %)
Final printing                  :      0.001 s (24.548 %)
Total time                      :      0.004 s

Time for energy+gradient        :      0.539 s
Time for complete geometry iter :      0.559 s

         *************************************************************
         *                GEOMETRY OPTIMIZATION CYCLE   7            *
         *************************************************************
---------------------------------
CARTESIAN COORDINATES (ANGSTROEM)
---------------------------------
  O      0.000000   -0.000000    0.102581
  H      0.000000    0.713036   -0.461840
  H      0.000000   -0.713036   -0.461840

----------------------------
CARTESIAN COORDINATES (A.U.)
----------------------------
  NO LB      ZA    FRAG     MASS         X           Y           Z
   0 O     8.0000    0    15.999    0.000000   -0.000000    0.193849
   1 H     1.0000    0     1.008    0.000000    1.347444   -0.872752
   2 H     1.0000    0     1.008    0.000000   -1.347444   -0.872752

--------------------------------
INTERNAL COORDINATES (ANGSTROEM)
--------------------------------
 O      0   0   0     0.000000000000     0.00000000     0.00000000
 H      1   0   0     0.909390998165     0.00000000     0.00000000
 H      1   2   0     0.909390998165   103.27158058     0.00000000

---------------------------
INTERNAL COORDINATES (A.U.)
---------------------------
 O      0   0   0     0.000000000000     0.00000000     0.00000000
 H      1   0   0     1.718499935186     0.00000000     0.00000000
 H      1   2   0     1.718499935186   103.27158058     0.00000000

Calling /mmhome/boittier/home/mmml/examples/orca/mmml-orca-client water_opt_EXT.extinp.tmp -b 127.0.0.1:8888  > water_opt.lastext ...  done

External program completed successfully in 0.491 sec
------------------------------------------------------------------------------
                         ORCA GEOMETRY RELAXATION STEP
------------------------------------------------------------------------------

Reading the OPT-File                    .... done
Getting information on internals        .... done
Copying old internal coords+grads       .... done
Making the new internal coordinates     .... (2022 redundants) done
Validating the new internal coordinates .... (2022 redundants) done
Calculating the B-matrix                .... done
Calculating the G,G- and P matrices     .... done
Transforming gradient to internals      .... done
Projecting the internal gradient        .... done
Number of atoms                         ....   3
Number of internal coordinates          ....   3
Current Energy                          ....    -0.431115307 Eh
Current gradient norm                   ....     0.000220996 Eh/bohr
Maximum allowed component of the step   ....  0.300
Current trust radius                    ....  0.100
Updating the Hessian (BFGS)             .... done
Forming the augmented Hessian           .... done
Diagonalizing the augmented Hessian     .... done
Last element of RFO vector              ....  0.999999921
Lowest eigenvalues of augmented Hessian:
 -0.000000063  0.320842002  0.397485669
Length of the computed step             ....  0.000397175
The final length of the internal step   ....  0.000397175
Converting the step to Cartesian space:
 Initial RMS(Int)=    0.0002293090
Transforming coordinates:
 Iter   0:  RMS(Cart)=    0.0001067624 RMS(Int)=    0.0002293091
done
Storing new coordinates                 .... done
The predicted energy change is          ....    -0.000000031
Previously predicted energy change      ....    -0.000001947
Actually observed energy change         ....     0.000112921
Ratio of predicted to observed change   ....    57.986117509
New trust radius                        ....     0.100000000

                                .--------------------.
          ----------------------|Geometry convergence|-------------------------
          Item                value                   Tolerance       Converged
          ---------------------------------------------------------------------
          Energy change       0.0001129211            0.0000050000      NO
          RMS gradient        0.0000911470            0.0001000000      YES
          MAX gradient        0.0001108065            0.0003000000      YES
          RMS step            0.0002293090            0.0020000000      YES
          MAX step            0.0002787788            0.0040000000      YES
          ........................................................
          Max(Bonds)      0.0001      Max(Angles)    0.00
          Max(Dihed)        0.00      Max(Improp)    0.00
          ---------------------------------------------------------------------

       Everything but the energy has converged. However, the energy
       appears to be close enough to convergence to make sure that the
       final evaluation at the new geometry represents the equilibrium energy.
       Convergence will therefore be signaled now


                    ***********************HURRAY********************
                    ***        THE OPTIMIZATION HAS CONVERGED     ***
                    *************************************************


    ---------------------------------------------------------------------------
                         Redundant Internal Coordinates

                          --- Optimized Parameters ---  
                            (Angstroem and degrees)

        Definition                    OldVal   dE/dq     Step     FinalVal
    ----------------------------------------------------------------------------
     1. B(H   1,O   0)                0.9094  0.000111 -0.0001    0.9092   
     2. B(H   2,O   0)                0.9094  0.000111 -0.0001    0.9092   
     3. A(H   1,O   0,H   2)          103.27 -0.000019    0.00    103.27   
    ----------------------------------------------------------------------------

Geometry step timings:
Preparation and reading OPT file:      0.001 s (15.311 %)
Internal coordinates            :      0.000 s ( 0.210 %)
B/P matrices and projection     :      0.000 s ( 1.235 %)
Hessian update/contruction      :      0.002 s (46.563 %)
Making the step                 :      0.000 s ( 0.466 %)
Converting the step to Cartesian:      0.000 s ( 0.210 %)
Storing new data                :      0.000 s ( 7.877 %)
Checking convergence            :      0.000 s ( 0.093 %)
Final printing                  :      0.001 s (28.012 %)
Total time                      :      0.004 s
                 *******************************************************
                 *** FINAL ENERGY EVALUATION AT THE STATIONARY POINT ***
                 ***               (AFTER    7 CYCLES)               ***
                 *******************************************************
---------------------------------
CARTESIAN COORDINATES (ANGSTROEM)
---------------------------------
  O      0.000000   -0.000000    0.102508
  H      0.000000    0.712934   -0.461804
  H      0.000000   -0.712934   -0.461804

----------------------------
CARTESIAN COORDINATES (A.U.)
----------------------------
  NO LB      ZA    FRAG     MASS         X           Y           Z
   0 O     8.0000    0    15.999    0.000000   -0.000000    0.193712
   1 H     1.0000    0     1.008    0.000000    1.347251   -0.872683
   2 H     1.0000    0     1.008    0.000000   -1.347251   -0.872683

--------------------------------
INTERNAL COORDINATES (ANGSTROEM)
--------------------------------
 O      0   0   0     0.000000000000     0.00000000     0.00000000
 H      1   0   0     0.909243474802     0.00000000     0.00000000
 H      1   2   0     0.909243474802   103.27433591     0.00000000

---------------------------
INTERNAL COORDINATES (A.U.)
---------------------------
 O      0   0   0     0.000000000000     0.00000000     0.00000000
 H      1   0   0     1.718221156431     0.00000000     0.00000000
 H      1   2   0     1.718221156431   103.27433591     0.00000000

Calling /mmhome/boittier/home/mmml/examples/orca/mmml-orca-client water_opt_EXT.extinp.tmp -b 127.0.0.1:8888  ... 


External program completed successfully in 0.518 sec

-------------------------------------------------   --------------------
FINAL SINGLE POINT ENERGY (From external program)        -0.431206078859
-------------------------------------------------   --------------------


------------------
CARTESIAN GRADIENT
------------------

   1   O   :   -0.000000000   -0.000000000    0.000032420
   2   H   :   -0.000000000   -0.000033859   -0.000016210
   3   H   :   -0.000000000    0.000033859   -0.000016210

Difference to translation invariance:
           :    0.0000000000    0.0000000000   -0.0000000000

Difference to rotation invariance:
           :   -0.0000000000    0.0000000000    0.0000000000

Norm of the Cartesian gradient     ...    0.0000622048
RMS gradient                       ...    0.0000207349
MAX gradient                       ...    0.0000338592
                                *** OPTIMIZATION RUN DONE ***


--------------------------------
SUGGESTED CITATIONS FOR THIS RUN
--------------------------------

Below you find a list of papers that are relevant to this ORCA run
We neither can nor want to force you to cite these papers, but we appreciate if you do
You receive ORCA, which is the product of decades of hard work by many enthusiastic individuals, for free
The only thing we kindly ask in return is that you cite our papers,
We deeply appreciate it, if you show your appreciation for ORCA by not just citing the generic ORCA reference.

Please note that relegating all ORCA citations to the supporting information does *not* help us.
SI sections are not indexed - citations you put there will not count into any citation statistics
But we need these citations in order to attract the funding resources that allow us to do what we are doing

Therefore, if you are a happy ORCA user, please consider citing a few of the papers listed below in the main body of your paper

In addition to the list printed below, the program has created the file water_opt.bibtex that contains the list in bibtex format
You can import this file easily into all common literature databanks and citation aid programs


List of essential papers. We consider these as the minimum necessary citations

  1. Neese,F.
     Software update: the ORCA program system, version 5.0
     WIRES Comput. Molec. Sci., 2022 12(1)e1606
     doi.org/10.1002/wcms.1606

List of papers to cite with high priority. The work reported in these papers was absolutely
necessary for this run to complete.
Our perspective: the developers of density functionals and basis sets usually get cited in chemistry papers
Good! But without the algorithms to do something with them, the functionals or basis sets would not do anything.
Hence, in our opinion, the algorithm design and method developments papers are equally worthy of getting cited

  1. Neese,F.
     The SHARK Integral Generation and Digestion System
     J. Comp. Chem., 2022  1-16
     doi.org/10.1002/jcc.26942

List of suggested additional citations. These are papers that are important in the 'surrounding' of 
of this run, or papers that preceded the highly important papers. If you like your results we are grateful for a citation.

  1. Neese,F.
     The ORCA program system
     WIRES Comput. Molec. Sci., 2012 2(1)73-78
     doi.org/10.1002/wcms.81
  2. Neese,F.
     Software update: the ORCA program system, version 4.0
     WIRES Comput. Molec. Sci., 2018 8(1)1-6
     doi.org/10.1002/wcms.1327
  3. Neese,F.; Wennmohs,F.; Becker,U.; Riplinger,C.
     The ORCA quantum chemistry program package
     J. Chem. Phys., 2020 152 Art. No. L224108
     doi.org/10.1063/5.0004608

List of optional additional citations

  1. Neese,F.
     Approximate second-order SCF convergence for spin unrestricted wavefunctions
     Chem. Phys. Lett., 2000 325(1-3)93-98
     doi.org/10.1016/s0009-2614(00)00662-x

Timings for individual modules:

Sum of individual times          ...        4.586 sec (=   0.076 min)
Geometry relaxation              ...        0.038 sec (=   0.001 min)   0.8 %
External energy and gradient     ...        4.548 sec (=   0.076 min)  99.2 %
                             ****ORCA TERMINATED NORMALLY****
TOTAL RUN TIME: 0 days 0 hours 0 minutes 4 seconds 907 msec
