# equilibrium acetone dimer (20 atoms)
C   0.106000  -14.163000  -10.116000
C   0.371000  -14.513000  -11.535000
C  -0.099000  -12.711000   -9.705000
O  -0.145000  -15.096000   -9.336000
H  -0.644000  -12.166000  -10.471000
H   0.883000  -12.153000   -9.442000
H  -0.726000  -12.691000   -8.738000
H  -0.559000  -14.913000  -12.080000
H   1.336000  -15.123000  -11.601000
H   0.745000  -13.576000  -12.086000
C  -2.470000  -12.432000   -6.840000
C  -1.890000  -11.714000   -5.697000
C  -2.522000  -13.917000   -6.871000
O  -2.842000  -11.832000   -7.835000
H  -2.755000  -14.276000   -7.884000
H  -3.371000  -14.147000   -6.124000
H  -1.595000  -14.390000   -6.539000
H  -2.539000  -11.774000   -4.798000
H  -1.707000  -10.673000   -5.945000
H  -0.903000  -12.099000   -5.449000

# slightly distorted starting geometry
C   0.126000  -14.156000  -10.093000
C   0.328000  -14.530000  -11.542000
C  -0.109000  -12.721000   -9.699000
O  -0.132000  -15.124000   -9.329000
H  -0.623000  -12.179000  -10.486000
H   0.872000  -12.170000   -9.452000
H  -0.711000  -12.675000   -8.749000
H  -0.540000  -14.889000  -12.087000
H   1.354000  -15.128000  -11.611000
H   0.736000  -13.598000  -12.071000
C  -4.596000   -3.255000  -12.560000
C  -4.781000   -2.739000  -11.116000
C  -4.053000   -2.129000  -13.454000
O  -5.094000   -4.295000  -12.870000
H  -4.320000   -2.260000  -14.520000
H  -2.991000   -2.169000  -13.162000
H  -4.487000   -1.150000  -13.070000
H  -3.889000   -2.783000  -10.548000
H  -5.552000   -3.431000  -10.730000
H  -5.122000   -1.708000  -11.074000
