12
Properties=species:S:1:pos:R:3:forces_eVA:R:3 energy_eV=47663.296875 pbc="F F F"
C        0.00000000       0.00000000       0.00000000  158924.57812500   -4381.44970703       0.00000000
O        1.16000000       0.00000000       0.00000000 1724871.75000000     558.12866211       0.00000000
O       -1.16000000       0.00000000       0.00000000 -2179815.50000000    2065.83496094       0.00000000
C        4.00000000       0.00000000       0.00000000   28768.42773438     610.89428711       0.00000000
O        5.16000000       0.00000000       0.00000000  -28377.25781250    1122.72192383       0.00000000
O        2.84000000       0.00000000       0.00000000 -357310.75000000    -301.30429077       0.00000000
C        0.00000000       4.00000000       0.00000000   -1136.66210938   35006.64062500       0.00000000
O        1.16000000       4.00000000       0.00000000   14597.00097656    8543.95019531       0.00000000
O       -1.16000000       4.00000000       0.00000000   -5775.54687500   11708.96386719       0.00000000
C        4.00000000       4.00000000       0.00000000    8269.98437500     605.95245361       0.00000000
O        5.16000000       4.00000000       0.00000000   -1024.00183105    1068.33227539       0.00000000
O        2.84000000       4.00000000       0.00000000  -15988.58007812   -4976.25000000       0.00000000
