                                 *****************
                                 * O   R   C   A *
                                 *****************

                       *****************************
                       * Geometry Optimization Run *
                       *****************************

Geometry optimization settings:
Update method            Update   .... BFGS
Choice of coordinates    CoordSys .... (2022) Redundant Internals
Initial Hessian          InHess   .... Almloef's Model
Max. no of cycles        MaxIter  .... 9000

Convergence Tolerances:
Energy Change            TolE     ....  5.0000e-06 Eh
Max. Gradient            TolMAXG  ....  3.0000e-04 Eh/bohr
RMS Gradient             TolRMSG  ....  1.0000e-04 Eh/bohr
Max. Displacement        TolMAXD  ....  4.0000e-03 bohr
RMS Displacement         TolRMSD  ....  2.0000e-03 bohr
Strict Convergence                .... False

------------------------------------------------------------------------------
                        ORCA OPTIMIZATION COORDINATE SETUP
------------------------------------------------------------------------------

The optimization will be done in redundant internal coordinates (2022)
Making redundant internal coordinates   ...  (2022 redundants) done
Evaluating the initial hessian          ...  (Almloef) done
Evaluating the coordinates              ...  done
Calculating the B-matrix                .... done
Calculating the G-matrix                .... done
Diagonalizing the G-matrix              .... done
The first mode is                       ....    9
The number of degrees of freedom        ....   21

    -----------------------------------------------------------------
                    Redundant Internal Coordinates


    -----------------------------------------------------------------
         Definition                    Initial Value    Approx d2E/dq
    -----------------------------------------------------------------
      1. B(C   1,C   0)                  1.5112         0.400329   
      2. B(O   2,C   1)                  1.4109         0.518227   
      3. B(H   3,C   0)                  1.0819         0.370957   
      4. B(H   4,C   0)                  1.0835         0.368784   
      5. B(H   5,C   0)                  1.0792         0.374695   
      6. B(H   6,C   1)                  1.0915         0.358170   
      7. B(H   7,C   1)                  1.0864         0.364937   
      8. B(H   8,O   2)                  0.9357         0.568490   
      9. A(C   1,C   0,H   5)          112.5155         0.330191   
     10. A(H   3,C   0,H   4)          107.9622         0.293300   
     11. A(H   3,C   0,H   5)          107.2235         0.294037   
     12. A(C   1,C   0,H   4)          112.3237         0.329325   
     13. A(C   1,C   0,H   3)          112.2073         0.329644   
     14. A(H   4,C   0,H   5)          104.1299         0.293764   
     15. A(H   6,C   1,H   7)          105.6154         0.291204   
     16. A(C   0,C   1,O   2)          112.7462         0.386639   
     17. A(O   2,C   1,H   7)          106.1577         0.341088   
     18. A(C   0,C   1,H   7)          110.9960         0.328755   
     19. A(O   2,C   1,H   6)          110.5488         0.340022   
     20. A(C   0,C   1,H   6)          110.4624         0.327741   
     21. A(C   1,O   2,H   8)          108.8648         0.364443   
     22. D(O   2,C   1,C   0,H   4)    -70.3483         0.012715   
     23. D(H   6,C   1,C   0,H   3)    175.7441         0.012715   
     24. D(O   2,C   1,C   0,H   3)     51.5028         0.012715   
     25. D(H   6,C   1,C   0,H   4)     53.8930         0.012715   
     26. D(H   6,C   1,C   0,H   5)    -63.2289         0.012715   
     27. D(O   2,C   1,C   0,H   5)    172.5298         0.012715   
     28. D(H   8,O   2,C   1,C   0)     50.4138         0.021286   
     29. D(H   8,O   2,C   1,H   7)    172.1471         0.021286   
     30. D(H   8,O   2,C   1,H   6)    -73.7800         0.021286   
    -----------------------------------------------------------------

Number of atoms                         .... 9
Number of degrees of freedom            .... 30


         *************************************************************
         *                GEOMETRY OPTIMIZATION CYCLE   1            *
         *************************************************************
------------------------------------------------------------------------------
                         ORCA GEOMETRY RELAXATION STEP
------------------------------------------------------------------------------

Reading the OPT-File                    .... done

---------------------------------------------
FINAL SINGLE POINT ENERGY        -1.448327663750
---------------------------------------------

Getting information on internals        .... done
Copying old internal coords+grads       .... done
Making the new internal coordinates     .... (2022 redundants) done
Validating the new internal coordinates .... (2022 redundants) done
Calculating the B-matrix                .... done
Calculating the G,G- and P matrices     .... done
Transforming gradient to internals      .... done
Projecting the internal gradient        .... done
Number of atoms                         ....   9
Number of internal coordinates          ....  30
Current Energy                          ....    -1.448327664 Eh
Current gradient norm                   ....     0.000238730 Eh/bohr
Maximum allowed component of the step   ....  0.300
Current trust radius                    ....  0.300
Evaluating the initial hessian          ....  (Almloef) done
Projecting the Hessian                  .... done
Forming the augmented Hessian           .... done
Diagonalizing the augmented Hessian     .... done
Last element of RFO vector              ....  0.999992495
Lowest eigenvalues of augmented Hessian:
 -0.000000368  0.012714851  0.021286314  0.100081124  0.128402191
Length of the computed step             ....  0.003874298
The final length of the internal step   ....  0.003874298
Converting the step to Cartesian space:
 Initial RMS(Int)=    0.0007073469
Transforming coordinates:
 Iter   0:  RMS(Cart)=    0.0007958763 RMS(Int)=    0.0007073524
done
Storing new coordinates                 .... done

       Everything but the energy has converged. However, the energy
       appears to be close enough to convergence to make sure that the
       final evaluation at the new geometry represents the equilibrium energy.
       Convergence will therefore be signaled now


			-----------------------
			     GOAT ITER   1       
			-----------------------

	Minimum found after 1 optimization iterations! E = -1.448328

	No previous minima found yet, adding first to ethanol_goat.goat.0.3.ensembleen.tmp.

	Number of GOAT steps per global cycle: 27

	Current MaxEn         : 27.00 kcal/mol
	Current Temperature   : 363.00 K
	Current UphillGradComp: 1.00

                                .--------------------.
          ----------------------|Geometry convergence|-------------------------
          Item                value                   Tolerance       Converged
          ---------------------------------------------------------------------
          RMS gradient        0.0000330189            0.0001000000      YES
          MAX gradient        0.0000776937            0.0003000000      YES
          RMS step            0.0007073469            0.0020000000      YES
          MAX step            0.0018594998            0.0040000000      YES
          ........................................................
          Max(Bonds)      0.0001      Max(Angles)    0.02
          Max(Dihed)        0.11      Max(Improp)    0.00
          ---------------------------------------------------------------------

Geometry step timings:
Preparation and reading OPT file:      0.001 s ( 5.730 %)
Internal coordinates            :      0.000 s ( 0.102 %)
B/P matrices and projection     :      0.000 s ( 1.211 %)
Hessian update/contruction      :      0.002 s (23.275 %)
Making the step                 :      0.000 s ( 0.865 %)
Converting the step to Cartesian:      0.000 s ( 0.234 %)
Storing new data                :      0.000 s ( 3.430 %)
Checking convergence            :      0.000 s ( 0.010 %)
GOAT stuff                      :      0.005 s (54.997 %)
Final printing                  :      0.001 s (10.106 %)
Total time                      :      0.010 s

Time for energy+gradient        :      0.642 s
Time for complete geometry iter :      0.885 s

         *************************************************************
         *                GEOMETRY OPTIMIZATION CYCLE   2            *
         *************************************************************
------------------------------------------------------------------------------
                         ORCA GEOMETRY RELAXATION STEP
------------------------------------------------------------------------------

Reading the OPT-File                    .... done

---------------------------------------------
FINAL SINGLE POINT ENERGY        -1.448327944126
---------------------------------------------

Getting information on internals        .... done
Copying old internal coords+grads       .... done
Making the new internal coordinates     .... (2022 redundants) done
Validating the new internal coordinates .... (2022 redundants) done
Calculating the B-matrix                .... done
Calculating the G,G- and P matrices     .... done
Transforming gradient to internals      .... done
Projecting the internal gradient        .... done
Number of atoms                         ....   9
Number of internal coordinates          ....  30
Current Energy                          ....    -1.448327944 Eh
Current gradient norm                   ....     0.000193019 Eh/bohr
Maximum allowed component of the step   ....  0.300
Current trust radius                    ....  0.300
Updating the Hessian (BFGS)             .... done
Making initial random step              .... (random normal) done
Converting the step to Cartesian space:
 Initial RMS(Int)=    0.0678427395
Transforming coordinates:
 Iter   0:  RMS(Cart)=    0.0804777744 RMS(Int)=    0.0602196395
 Iter   5:  RMS(Cart)=    0.0000015738 RMS(Int)=    0.0000017169
Imposing constraints:
 Iter   0:  RMS(Cart)=    0.0000000015 RMS(Int)=    0.0000000000
CONVERGED
done
Storing new coordinates                 .... done
Current trust radius                    ....     0.3000
Energy difference                       ....     0.0002 kcal/mol
Maximum difference                      ....     0.2700 kcal/mol
New trust radius                        ....     0.4500

                                .--------------------.
          ----------------------|Geometry convergence|-------------------------
          Item                value                   Tolerance       Converged
          ---------------------------------------------------------------------
          Energy change      -0.0000002804            0.0000050000      YES
          RMS gradient        0.0000279038            0.0001000000      YES
          MAX gradient        0.0000681177            0.0003000000      YES
          RMS step            0.0678427395            0.0020000000      NO
          MAX step            0.1648772574            0.0040000000      NO
          ........................................................
          Max(Bonds)      0.0000      Max(Angles)    8.34
          Max(Dihed)        9.45      Max(Improp)    0.00
          ---------------------------------------------------------------------

Geometry step timings:
Preparation and reading OPT file:      0.001 s ( 8.197 %)
Internal coordinates            :      0.000 s ( 0.115 %)
B/P matrices and projection     :      0.000 s ( 1.397 %)
Hessian update/contruction      :      0.004 s (41.919 %)
Making the step                 :      0.002 s (23.921 %)
Converting the step to Cartesian:      0.001 s ( 9.039 %)
Storing new data                :      0.000 s ( 3.706 %)
Checking convergence            :      0.000 s ( 0.035 %)
GOAT stuff                      :      0.000 s ( 0.012 %)
Final printing                  :      0.001 s (11.637 %)
Total time                      :      0.009 s

Time for energy+gradient        :      0.741 s
Time for complete geometry iter :      0.781 s

         *************************************************************
         *                GEOMETRY OPTIMIZATION CYCLE   3            *
         *************************************************************
------------------------------------------------------------------------------
                         ORCA GEOMETRY RELAXATION STEP
------------------------------------------------------------------------------

Reading the OPT-File                    .... done

---------------------------------------------
FINAL SINGLE POINT ENERGY        -1.443176893153
---------------------------------------------

Getting information on internals        .... done
Copying old internal coords+grads       .... done
Making the new internal coordinates     .... (2022 redundants) done
Validating the new internal coordinates .... (2022 redundants) done
Calculating the B-matrix                .... done
Calculating the G,G- and P matrices     .... done
Transforming gradient to internals      .... done
Projecting the internal gradient        .... done
Number of atoms                         ....   9
Number of internal coordinates          ....  30
Current Energy                          ....    -1.443176893 Eh
Current gradient norm                   ....     0.035100277 Eh/bohr
Maximum allowed component of the step   ....  0.300
Current trust radius                    ....  0.450
Updating the Hessian (BFGS)             .... done
Making uphill step                      .... done
Uphill step size                        .... 0.448361
Converting the step to Cartesian space:
 Initial RMS(Int)=    0.0818592066
Transforming coordinates:
 Iter   0:  RMS(Cart)=    0.0707107910 RMS(Int)=    1.1132038523
 Iter   5:  RMS(Cart)=    0.0000105360 RMS(Int)=    0.0000101607
Imposing constraints:
 Iter   0:  RMS(Cart)=    0.0000000009 RMS(Int)=    0.0000000000
CONVERGED
done
Storing new coordinates                 .... done
Current trust radius                    ....     0.4500
Energy difference                       ....     3.2323 kcal/mol
Maximum difference                      ....     0.2700 kcal/mol
New trust radius                        ....     0.3000

                                .--------------------.
          ----------------------|Geometry convergence|-------------------------
          Item                value                   Tolerance       Converged
          ---------------------------------------------------------------------
          Energy change       0.0051510510            0.0000050000      NO
          RMS gradient        0.0079254292            0.0001000000      NO
          MAX gradient        0.0163205429            0.0003000000      NO
          RMS step            0.0818592066            0.0020000000      NO
          MAX step            0.2255969399            0.0040000000      NO
          ........................................................
          Max(Bonds)      0.0000      Max(Angles)    6.05
          Max(Dihed)       12.93      Max(Improp)    0.00
          ---------------------------------------------------------------------

Geometry step timings:
Preparation and reading OPT file:      0.001 s (10.057 %)
Internal coordinates            :      0.000 s ( 0.199 %)
B/P matrices and projection     :      0.000 s ( 2.043 %)
Hessian update/contruction      :      0.002 s (35.291 %)
Making the step                 :      0.002 s (21.461 %)
Converting the step to Cartesian:      0.001 s ( 8.723 %)
Storing new data                :      0.000 s ( 3.801 %)
Checking convergence            :      0.000 s ( 0.085 %)
GOAT stuff                      :      0.000 s ( 0.000 %)
Final printing                  :      0.001 s (18.312 %)
Total time                      :      0.007 s

Time for energy+gradient        :      0.743 s
Time for complete geometry iter :      0.777 s

         *************************************************************
         *                GEOMETRY OPTIMIZATION CYCLE   4            *
         *************************************************************
------------------------------------------------------------------------------
                         ORCA GEOMETRY RELAXATION STEP
------------------------------------------------------------------------------

Reading the OPT-File                    .... done

---------------------------------------------
FINAL SINGLE POINT ENERGY        -1.436685649297
---------------------------------------------

Getting information on internals        .... done
Copying old internal coords+grads       .... done
Making the new internal coordinates     .... (2022 redundants) done
Validating the new internal coordinates .... (2022 redundants) done
Calculating the B-matrix                .... done
Calculating the G,G- and P matrices     .... done
Transforming gradient to internals      .... done
Projecting the internal gradient        .... done
Number of atoms                         ....   9
Number of internal coordinates          ....  30
Current Energy                          ....    -1.436685649 Eh
Current gradient norm                   ....     0.045530870 Eh/bohr
Maximum allowed component of the step   ....  0.300
Current trust radius                    ....  0.300
Updating the Hessian (BFGS)             .... done
Making uphill step                      .... done
Uphill step size                        .... 0.298794
Converting the step to Cartesian space:
 Initial RMS(Int)=    0.0545520436
Transforming coordinates:
 Iter   0:  RMS(Cart)=    0.0531999398 RMS(Int)=    0.0542091672
 Iter   5:  RMS(Cart)=    0.0000006285 RMS(Int)=    0.0000007179
Imposing constraints:
 Iter   0:  RMS(Cart)=    0.0000000073 RMS(Int)=    0.0000000001
CONVERGED
done
Storing new coordinates                 .... done
Current trust radius                    ....     0.3000
Energy difference                       ....     4.0733 kcal/mol
Maximum difference                      ....     0.2700 kcal/mol
New trust radius                        ....     0.3000

                                .--------------------.
          ----------------------|Geometry convergence|-------------------------
          Item                value                   Tolerance       Converged
          ---------------------------------------------------------------------
          Energy change       0.0064912439            0.0000050000      NO
          RMS gradient        0.0109845609            0.0001000000      NO
          MAX gradient        0.0296191793            0.0003000000      NO
          RMS step            0.0545520436            0.0020000000      NO
          MAX step            0.1560647081            0.0040000000      NO
          ........................................................
          Max(Bonds)      0.0000      Max(Angles)    2.61
          Max(Dihed)        8.94      Max(Improp)    0.00
          ---------------------------------------------------------------------

Geometry step timings:
Preparation and reading OPT file:      0.001 s (10.105 %)
Internal coordinates            :      0.000 s ( 0.148 %)
B/P matrices and projection     :      0.000 s ( 1.579 %)
Hessian update/contruction      :      0.003 s (41.028 %)
Making the step                 :      0.002 s (20.683 %)
Converting the step to Cartesian:      0.000 s ( 6.409 %)
Storing new data                :      0.000 s ( 5.086 %)
Checking convergence            :      0.000 s ( 0.040 %)
GOAT stuff                      :      0.000 s ( 0.013 %)
Final printing                  :      0.001 s (14.868 %)
Total time                      :      0.007 s

Time for energy+gradient        :      0.715 s
Time for complete geometry iter :      0.752 s

         *************************************************************
         *                GEOMETRY OPTIMIZATION CYCLE   5            *
         *************************************************************
------------------------------------------------------------------------------
                         ORCA GEOMETRY RELAXATION STEP
------------------------------------------------------------------------------

Reading the OPT-File                    .... done

---------------------------------------------
FINAL SINGLE POINT ENERGY        -1.436810135832
---------------------------------------------

Getting information on internals        .... done
Copying old internal coords+grads       .... done
Making the new internal coordinates     .... (2022 redundants) done
Validating the new internal coordinates .... (2022 redundants) done
Calculating the B-matrix                .... done
Calculating the G,G- and P matrices     .... done
Transforming gradient to internals      .... done
Projecting the internal gradient        .... done
Number of atoms                         ....   9
Number of internal coordinates          ....  30
Current Energy                          ....    -1.436810136 Eh
Current gradient norm                   ....     0.042700213 Eh/bohr
Maximum allowed component of the step   ....  0.300
Current trust radius                    ....  0.300
Updating the Hessian (BFGS)             .... done
Making uphill step                      .... done
Uphill step size                        .... 0.299037
Converting the step to Cartesian space:
 Initial RMS(Int)=    0.0545963788
Transforming coordinates:
 Iter   0:  RMS(Cart)=    0.0645760580 RMS(Int)=    0.0537834997
 Iter   5:  RMS(Cart)=    0.0000005203 RMS(Int)=    0.0000006541
Imposing constraints:
 Iter   0:  RMS(Cart)=    0.0000000015 RMS(Int)=    0.0000000000
CONVERGED
done
Storing new coordinates                 .... done
Current trust radius                    ....     0.3000
Energy difference                       ....     0.0781 kcal/mol
Maximum difference                      ....     0.2700 kcal/mol
New trust radius                        ....     0.4500

                                .--------------------.
          ----------------------|Geometry convergence|-------------------------
          Item                value                   Tolerance       Converged
          ---------------------------------------------------------------------
          Energy change      -0.0001244865            0.0000050000      NO
          RMS gradient        0.0101479748            0.0001000000      NO
          MAX gradient        0.0257461500            0.0003000000      NO
          RMS step            0.0545963788            0.0020000000      NO
          MAX step            0.1618111262            0.0040000000      NO
          ........................................................
          Max(Bonds)      0.0000      Max(Angles)    3.83
          Max(Dihed)        9.27      Max(Improp)    0.00
          ---------------------------------------------------------------------

Geometry step timings:
Preparation and reading OPT file:      0.001 s (12.656 %)
Internal coordinates            :      0.000 s ( 0.092 %)
B/P matrices and projection     :      0.000 s ( 1.098 %)
Hessian update/contruction      :      0.004 s (43.886 %)
Making the step                 :      0.001 s (13.789 %)
Converting the step to Cartesian:      0.001 s ( 6.056 %)
Storing new data                :      0.000 s ( 3.225 %)
Checking convergence            :      0.000 s ( 0.023 %)
GOAT stuff                      :      0.000 s ( 0.012 %)
Final printing                  :      0.002 s (19.140 %)
Total time                      :      0.009 s

Time for energy+gradient        :      0.935 s
Time for complete geometry iter :      0.979 s

         *************************************************************
         *                GEOMETRY OPTIMIZATION CYCLE   6            *
         *************************************************************
------------------------------------------------------------------------------
                         ORCA GEOMETRY RELAXATION STEP
------------------------------------------------------------------------------

Reading the OPT-File                    .... done

---------------------------------------------
FINAL SINGLE POINT ENERGY        -1.440178001295
---------------------------------------------

Getting information on internals        .... done
Copying old internal coords+grads       .... done
Making the new internal coordinates     .... (2022 redundants) done
Validating the new internal coordinates .... (2022 redundants) done
Calculating the B-matrix                .... done
Calculating the G,G- and P matrices     .... done
Transforming gradient to internals      .... done
Projecting the internal gradient        .... done
Number of atoms                         ....   9
Number of internal coordinates          ....  30
Current Energy                          ....    -1.440178001 Eh
Current gradient norm                   ....     0.034416797 Eh/bohr
Maximum allowed component of the step   ....  0.300
Current trust radius                    ....  0.450
Updating the Hessian (BFGS)             .... done
Making uphill step                      .... done
Uphill step size                        .... 0.449773
Converting the step to Cartesian space:
 Initial RMS(Int)=    0.0821170246
Transforming coordinates:
 Iter   0:  RMS(Cart)=    0.0856344785 RMS(Int)=    0.0801677748
 Iter   5:  RMS(Cart)=    0.0000075169 RMS(Int)=    0.0000090554
Imposing constraints:
 Iter   0:  RMS(Cart)=    0.0000000027 RMS(Int)=    0.0000000001
CONVERGED
done
Storing new coordinates                 .... done
Current trust radius                    ....     0.4500
Energy difference                       ....     2.1134 kcal/mol
Maximum difference                      ....     0.2700 kcal/mol
New trust radius                        ....     0.3000

                                .--------------------.
          ----------------------|Geometry convergence|-------------------------
          Item                value                   Tolerance       Converged
          ---------------------------------------------------------------------
          Energy change      -0.0033678655            0.0000050000      NO
          RMS gradient        0.0069691513            0.0001000000      NO
          MAX gradient        0.0168621049            0.0003000000      NO
          RMS step            0.0821170246            0.0020000000      NO
          MAX step            0.2454431690            0.0040000000      NO
          ........................................................
          Max(Bonds)      0.0000      Max(Angles)    5.11
          Max(Dihed)       14.06      Max(Improp)    0.00
          ---------------------------------------------------------------------

Geometry step timings:
Preparation and reading OPT file:      0.001 s (12.337 %)
Internal coordinates            :      0.000 s ( 0.157 %)
B/P matrices and projection     :      0.000 s ( 1.701 %)
Hessian update/contruction      :      0.003 s (35.983 %)
Making the step                 :      0.001 s (20.100 %)
Converting the step to Cartesian:      0.000 s ( 6.104 %)
Storing new data                :      0.000 s ( 4.146 %)
Checking convergence            :      0.000 s ( 0.043 %)
GOAT stuff                      :      0.000 s ( 0.000 %)
Final printing                  :      0.001 s (19.414 %)
Total time                      :      0.007 s

Time for energy+gradient        :      0.701 s
Time for complete geometry iter :      0.726 s

         *************************************************************
         *                GEOMETRY OPTIMIZATION CYCLE   7            *
         *************************************************************
------------------------------------------------------------------------------
                         ORCA GEOMETRY RELAXATION STEP
------------------------------------------------------------------------------

Reading the OPT-File                    .... done

---------------------------------------------
FINAL SINGLE POINT ENERGY        -1.442306468716
---------------------------------------------

Getting information on internals        .... done
Copying old internal coords+grads       .... done
Making the new internal coordinates     .... (2022 redundants) done
Validating the new internal coordinates .... (2022 redundants) done
Calculating the B-matrix                .... done
Calculating the G,G- and P matrices     .... done
Transforming gradient to internals      .... done
Projecting the internal gradient        .... done
Number of atoms                         ....   9
Number of internal coordinates          ....  30
Current Energy                          ....    -1.442306469 Eh
Current gradient norm                   ....     0.029038903 Eh/bohr
Maximum allowed component of the step   ....  0.300
Current trust radius                    ....  0.300
Updating the Hessian (BFGS)             .... done
Making uphill step                      .... done
Uphill step size                        .... 0.299675
Converting the step to Cartesian space:
 Initial RMS(Int)=    0.0547128420
Transforming coordinates:
 Iter   0:  RMS(Cart)=    0.0490200237 RMS(Int)=    0.0539930474
 Iter   5:  RMS(Cart)=    0.0000006674 RMS(Int)=    0.0000008024
Imposing constraints:
 Iter   0:  RMS(Cart)=    0.0000000058 RMS(Int)=    0.0000000001
CONVERGED
done
Storing new coordinates                 .... done
Current trust radius                    ....     0.3000
Energy difference                       ....     1.3356 kcal/mol
Maximum difference                      ....     0.2700 kcal/mol
New trust radius                        ....     0.3000

                                .--------------------.
          ----------------------|Geometry convergence|-------------------------
          Item                value                   Tolerance       Converged
          ---------------------------------------------------------------------
          Energy change      -0.0021284674            0.0000050000      NO
          RMS gradient        0.0037680871            0.0001000000      NO
          MAX gradient        0.0079797599            0.0003000000      NO
          RMS step            0.0547128420            0.0020000000      NO
          MAX step            0.1674681219            0.0040000000      NO
          ........................................................
          Max(Bonds)      0.0000      Max(Angles)    2.28
          Max(Dihed)        9.60      Max(Improp)    0.00
          ---------------------------------------------------------------------

Geometry step timings:
Preparation and reading OPT file:      0.000 s ( 7.567 %)
Internal coordinates            :      0.000 s ( 0.185 %)
B/P matrices and projection     :      0.000 s ( 2.068 %)
Hessian update/contruction      :      0.002 s (35.951 %)
Making the step                 :      0.001 s (15.504 %)
Converting the step to Cartesian:      0.000 s ( 8.324 %)
Storing new data                :      0.000 s ( 7.920 %)
Checking convergence            :      0.000 s ( 0.067 %)
GOAT stuff                      :      0.000 s ( 0.000 %)
Final printing                  :      0.001 s (22.398 %)
Total time                      :      0.006 s

Time for energy+gradient        :      0.714 s
Time for complete geometry iter :      0.737 s

         *************************************************************
         *                GEOMETRY OPTIMIZATION CYCLE   8            *
         *************************************************************
------------------------------------------------------------------------------
                         ORCA GEOMETRY RELAXATION STEP
------------------------------------------------------------------------------

Reading the OPT-File                    .... done

---------------------------------------------
FINAL SINGLE POINT ENERGY        -1.442942920148
---------------------------------------------

Getting information on internals        .... done
Copying old internal coords+grads       .... done
Making the new internal coordinates     .... (2022 redundants) done
Validating the new internal coordinates .... (2022 redundants) done
Calculating the B-matrix                .... done
Calculating the G,G- and P matrices     .... done
Transforming gradient to internals      .... done
Projecting the internal gradient        .... done
Number of atoms                         ....   9
Number of internal coordinates          ....  30
Current Energy                          ....    -1.442942920 Eh
Current gradient norm                   ....     0.024061720 Eh/bohr
Maximum allowed component of the step   ....  0.300
Current trust radius                    ....  0.300
Updating the Hessian (BFGS)             .... done
Making uphill step                      .... done
Uphill step size                        .... 0.299648
Converting the step to Cartesian space:
 Initial RMS(Int)=    0.0547080448
Transforming coordinates:
 Iter   0:  RMS(Cart)=    0.0416604838 RMS(Int)=    0.0542314528
 Iter   5:  RMS(Cart)=    0.0000005162 RMS(Int)=    0.0000006085
Imposing constraints:
 Iter   0:  RMS(Cart)=    0.0000000055 RMS(Int)=    0.0000000000
CONVERGED
done
Storing new coordinates                 .... done
Current trust radius                    ....     0.3000
Energy difference                       ....     0.3994 kcal/mol
Maximum difference                      ....     0.2700 kcal/mol
New trust radius                        ....     0.3000

                                .--------------------.
          ----------------------|Geometry convergence|-------------------------
          Item                value                   Tolerance       Converged
          ---------------------------------------------------------------------
          Energy change      -0.0006364514            0.0000050000      NO
          RMS gradient        0.0029172735            0.0001000000      NO
          MAX gradient        0.0065870606            0.0003000000      NO
          RMS step            0.0547080448            0.0020000000      NO
          MAX step            0.1766859771            0.0040000000      NO
          ........................................................
          Max(Bonds)      0.0000      Max(Angles)    2.74
          Max(Dihed)       10.12      Max(Improp)    0.00
          ---------------------------------------------------------------------

Geometry step timings:
Preparation and reading OPT file:      0.001 s (11.268 %)
Internal coordinates            :      0.000 s ( 0.105 %)
B/P matrices and projection     :      0.000 s ( 1.381 %)
Hessian update/contruction      :      0.004 s (41.985 %)
Making the step                 :      0.001 s (17.435 %)
Converting the step to Cartesian:      0.001 s (10.613 %)
Storing new data                :      0.000 s ( 3.616 %)
Checking convergence            :      0.000 s ( 0.035 %)
GOAT stuff                      :      0.000 s ( 0.000 %)
Final printing                  :      0.001 s (13.538 %)
Total time                      :      0.009 s

Time for energy+gradient        :      0.737 s
Time for complete geometry iter :      0.815 s

         *************************************************************
         *                GEOMETRY OPTIMIZATION CYCLE   9            *
         *************************************************************
------------------------------------------------------------------------------
                         ORCA GEOMETRY RELAXATION STEP
------------------------------------------------------------------------------

Reading the OPT-File                    .... done

---------------------------------------------
FINAL SINGLE POINT ENERGY        -1.443986476197
---------------------------------------------

Getting information on internals        .... done
Copying old internal coords+grads       .... done
Making the new internal coordinates     .... (2022 redundants) done
Validating the new internal coordinates .... (2022 redundants) done
Calculating the B-matrix                .... done
Calculating the G,G- and P matrices     .... done
Transforming gradient to internals      .... done
Projecting the internal gradient        .... done
Number of atoms                         ....   9
Number of internal coordinates          ....  30
Current Energy                          ....    -1.443986476 Eh
Current gradient norm                   ....     0.017180019 Eh/bohr
Maximum allowed component of the step   ....  0.300
Current trust radius                    ....  0.300
Updating the Hessian (BFGS)             .... done
Making uphill step                      .... done
Uphill step size                        .... 0.299623
Converting the step to Cartesian space:
 Initial RMS(Int)=    0.0547033511
Transforming coordinates:
 Iter   0:  RMS(Cart)=    0.0387837852 RMS(Int)=    0.0545065030
 Iter   5:  RMS(Cart)=    0.0000007872 RMS(Int)=    0.0000008718
Imposing constraints:
 Iter   0:  RMS(Cart)=    0.0000000009 RMS(Int)=    0.0000000000
CONVERGED
done
Storing new coordinates                 .... done
Current trust radius                    ....     0.3000
Energy difference                       ....     0.6548 kcal/mol
Maximum difference                      ....     0.2700 kcal/mol
New trust radius                        ....     0.3000

                                .--------------------.
          ----------------------|Geometry convergence|-------------------------
          Item                value                   Tolerance       Converged
          ---------------------------------------------------------------------
          Energy change      -0.0010435560            0.0000050000      NO
          RMS gradient        0.0023433643            0.0001000000      NO
          MAX gradient        0.0050507373            0.0003000000      NO
          RMS step            0.0547033511            0.0020000000      NO
          MAX step            0.1818396040            0.0040000000      NO
          ........................................................
          Max(Bonds)      0.0000      Max(Angles)    2.83
          Max(Dihed)       10.42      Max(Improp)    0.00
          ---------------------------------------------------------------------

Geometry step timings:
Preparation and reading OPT file:      0.000 s ( 6.406 %)
Internal coordinates            :      0.000 s ( 0.152 %)
B/P matrices and projection     :      0.000 s ( 1.841 %)
Hessian update/contruction      :      0.003 s (43.381 %)
Making the step                 :      0.001 s (17.575 %)
Converting the step to Cartesian:      0.000 s ( 6.923 %)
Storing new data                :      0.000 s ( 5.797 %)
Checking convergence            :      0.000 s ( 0.046 %)
GOAT stuff                      :      0.000 s ( 0.015 %)
Final printing                  :      0.001 s (17.848 %)
Total time                      :      0.007 s

Time for energy+gradient        :      0.757 s
Time for complete geometry iter :      0.780 s

         *************************************************************
         *                GEOMETRY OPTIMIZATION CYCLE  10            *
         *************************************************************
------------------------------------------------------------------------------
                         ORCA GEOMETRY RELAXATION STEP
------------------------------------------------------------------------------

Reading the OPT-File                    .... done

---------------------------------------------
FINAL SINGLE POINT ENERGY        -1.444558441360
---------------------------------------------

Getting information on internals        .... done
Copying old internal coords+grads       .... done
Making the new internal coordinates     .... (2022 redundants) done
Validating the new internal coordinates .... (2022 redundants) done
Calculating the B-matrix                .... done
Calculating the G,G- and P matrices     .... done
Transforming gradient to internals      .... done
Projecting the internal gradient        .... done
Number of atoms                         ....   9
Number of internal coordinates          ....  30
Current Energy                          ....    -1.444558441 Eh
Current gradient norm                   ....     0.014673557 Eh/bohr
Maximum allowed component of the step   ....  0.300
Current trust radius                    ....  0.300
Updating the Hessian (BFGS)             .... done
Making uphill step                      .... done
Uphill step size                        .... 0.299500
Converting the step to Cartesian space:
 Initial RMS(Int)=    0.0546809870
Transforming coordinates:
 Iter   0:  RMS(Cart)=    0.0396412259 RMS(Int)=    0.0546200668
 Iter   5:  RMS(Cart)=    0.0000014852 RMS(Int)=    0.0000016288
Imposing constraints:
 Iter   0:  RMS(Cart)=    0.0000000024 RMS(Int)=    0.0000000000
CONVERGED
done
Storing new coordinates                 .... done
Current trust radius                    ....     0.3000
Energy difference                       ....     0.3589 kcal/mol
Maximum difference                      ....     0.2700 kcal/mol
New trust radius                        ....     0.3000

                                .--------------------.
          ----------------------|Geometry convergence|-------------------------
          Item                value                   Tolerance       Converged
          ---------------------------------------------------------------------
          Energy change      -0.0005719652            0.0000050000      NO
          RMS gradient        0.0020208697            0.0001000000      NO
          MAX gradient        0.0059121368            0.0003000000      NO
          RMS step            0.0546809870            0.0020000000      NO
          MAX step            0.1844424672            0.0040000000      NO
          ........................................................
          Max(Bonds)      0.0000      Max(Angles)    2.61
          Max(Dihed)       10.57      Max(Improp)    0.00
          ---------------------------------------------------------------------

Geometry step timings:
Preparation and reading OPT file:      0.000 s ( 2.985 %)
Internal coordinates            :      0.000 s ( 0.065 %)
B/P matrices and projection     :      0.000 s ( 0.779 %)
Hessian update/contruction      :      0.011 s (70.074 %)
Making the step                 :      0.001 s ( 8.113 %)
Converting the step to Cartesian:      0.001 s ( 3.680 %)
Storing new data                :      0.000 s ( 2.687 %)
Checking convergence            :      0.000 s ( 0.045 %)
GOAT stuff                      :      0.000 s ( 0.000 %)
Final printing                  :      0.002 s (11.559 %)
Total time                      :      0.015 s

Time for energy+gradient        :      0.778 s
Time for complete geometry iter :      0.849 s

         *************************************************************
         *                GEOMETRY OPTIMIZATION CYCLE  11            *
         *************************************************************
------------------------------------------------------------------------------
                         ORCA GEOMETRY RELAXATION STEP
------------------------------------------------------------------------------

Reading the OPT-File                    .... done

---------------------------------------------
FINAL SINGLE POINT ENERGY        -1.444549329170
---------------------------------------------

Getting information on internals        .... done
Copying old internal coords+grads       .... done
Making the new internal coordinates     .... (2022 redundants) done
Validating the new internal coordinates .... (2022 redundants) done
Calculating the B-matrix                .... done
Calculating the G,G- and P matrices     .... done
Transforming gradient to internals      .... done
Projecting the internal gradient        .... done
Number of atoms                         ....   9
Number of internal coordinates          ....  30
Current Energy                          ....    -1.444549329 Eh
Current gradient norm                   ....     0.016156970 Eh/bohr
Maximum allowed component of the step   ....  0.300
Current trust radius                    ....  0.300
Updating the Hessian (BFGS)             .... done
Making uphill step                      .... done
Uphill step size                        .... 0.299464
Converting the step to Cartesian space:
 Initial RMS(Int)=    0.0546744052
Transforming coordinates:
 Iter   0:  RMS(Cart)=    0.0411020494 RMS(Int)=    0.0546480600
 Iter   5:  RMS(Cart)=    0.0000020747 RMS(Int)=    0.0000022744
Imposing constraints:
 Iter   0:  RMS(Cart)=    0.0000000041 RMS(Int)=    0.0000000000
CONVERGED
done
Storing new coordinates                 .... done
Current trust radius                    ....     0.3000
Energy difference                       ....     0.0057 kcal/mol
Maximum difference                      ....     0.2700 kcal/mol
New trust radius                        ....     0.4500

                                .--------------------.
          ----------------------|Geometry convergence|-------------------------
          Item                value                   Tolerance       Converged
          ---------------------------------------------------------------------
          Energy change       0.0000091122            0.0000050000      NO
          RMS gradient        0.0020215233            0.0001000000      NO
          MAX gradient        0.0068032017            0.0003000000      NO
          RMS step            0.0546744052            0.0020000000      NO
          MAX step            0.1789815944            0.0040000000      NO
          ........................................................
          Max(Bonds)      0.0000      Max(Angles)    2.73
          Max(Dihed)       10.25      Max(Improp)    0.00
          ---------------------------------------------------------------------

Geometry step timings:
Preparation and reading OPT file:      0.001 s (11.863 %)
Internal coordinates            :      0.000 s ( 0.163 %)
B/P matrices and projection     :      0.000 s ( 1.704 %)
Hessian update/contruction      :      0.003 s (34.348 %)
Making the step                 :      0.002 s (19.516 %)
Converting the step to Cartesian:      0.001 s (11.963 %)
Storing new data                :      0.000 s ( 4.472 %)
Checking convergence            :      0.000 s ( 0.063 %)
GOAT stuff                      :      0.000 s ( 0.013 %)
Final printing                  :      0.001 s (15.884 %)
Total time                      :      0.008 s

Time for energy+gradient        :      0.708 s
Time for complete geometry iter :      0.754 s

         *************************************************************
         *                GEOMETRY OPTIMIZATION CYCLE  12            *
         *************************************************************
------------------------------------------------------------------------------
                         ORCA GEOMETRY RELAXATION STEP
------------------------------------------------------------------------------

Reading the OPT-File                    .... done

---------------------------------------------
FINAL SINGLE POINT ENERGY        -1.444566011487
---------------------------------------------

Getting information on internals        .... done
Copying old internal coords+grads       .... done
Making the new internal coordinates     .... (2022 redundants) done
Validating the new internal coordinates .... (2022 redundants) done
Calculating the B-matrix                .... done
Calculating the G,G- and P matrices     .... done
Transforming gradient to internals      .... done
Projecting the internal gradient        .... done
Number of atoms                         ....   9
Number of internal coordinates          ....  30
Current Energy                          ....    -1.444566011 Eh
Current gradient norm                   ....     0.017221184 Eh/bohr
Maximum allowed component of the step   ....  0.300
Current trust radius                    ....  0.450
Updating the Hessian (BFGS)             .... done
Making uphill step                      .... done
Uphill step size                        .... 0.449649
Converting the step to Cartesian space:
 Initial RMS(Int)=    0.0820942527
Transforming coordinates:
 Iter   0:  RMS(Cart)=    0.0636298906 RMS(Int)=    0.0815820673
 Iter   5:  RMS(Cart)=    0.0000232746 RMS(Int)=    0.0000273489
Imposing constraints:
 Iter   0:  RMS(Cart)=    0.0000000151 RMS(Int)=    0.0000000003
CONVERGED
done
Storing new coordinates                 .... done
Current trust radius                    ....     0.4500
Energy difference                       ....     0.0105 kcal/mol
Maximum difference                      ....     0.2700 kcal/mol
New trust radius                        ....     0.6750

                                .--------------------.
          ----------------------|Geometry convergence|-------------------------
          Item                value                   Tolerance       Converged
          ---------------------------------------------------------------------
          Energy change      -0.0000166823            0.0000050000      NO
          RMS gradient        0.0020491232            0.0001000000      NO
          MAX gradient        0.0068835162            0.0003000000      NO
          RMS step            0.0820942527            0.0020000000      NO
          MAX step            0.2489316352            0.0040000000      NO
          ........................................................
          Max(Bonds)      0.0000      Max(Angles)    4.14
          Max(Dihed)       14.26      Max(Improp)    0.00
          ---------------------------------------------------------------------

Geometry step timings:
Preparation and reading OPT file:      0.001 s (10.601 %)
Internal coordinates            :      0.000 s ( 0.153 %)
B/P matrices and projection     :      0.000 s ( 1.701 %)
Hessian update/contruction      :      0.003 s (41.445 %)
Making the step                 :      0.001 s (18.299 %)
Converting the step to Cartesian:      0.001 s ( 7.954 %)
Storing new data                :      0.000 s ( 4.987 %)
Checking convergence            :      0.000 s ( 0.064 %)
GOAT stuff                      :      0.000 s ( 0.000 %)
Final printing                  :      0.001 s (14.783 %)
Total time                      :      0.008 s

Time for energy+gradient        :      0.716 s
Time for complete geometry iter :      0.746 s

         *************************************************************
         *                GEOMETRY OPTIMIZATION CYCLE  13            *
         *************************************************************
------------------------------------------------------------------------------
                         ORCA GEOMETRY RELAXATION STEP
------------------------------------------------------------------------------

Reading the OPT-File                    .... done

---------------------------------------------
FINAL SINGLE POINT ENERGY        -1.445048116438
---------------------------------------------

Getting information on internals        .... done
Copying old internal coords+grads       .... done
Making the new internal coordinates     .... (2022 redundants) done
Validating the new internal coordinates .... (2022 redundants) done
Calculating the B-matrix                .... done
Calculating the G,G- and P matrices     .... done
Transforming gradient to internals      .... done
Projecting the internal gradient        .... done
Number of atoms                         ....   9
Number of internal coordinates          ....  30
Current Energy                          ....    -1.445048116 Eh
Current gradient norm                   ....     0.017349951 Eh/bohr
Maximum allowed component of the step   ....  0.300
Current trust radius                    ....  0.675
Updating the Hessian (BFGS)             .... done
Making uphill step                      .... done
Uphill step size                        .... 0.362714
Converting the step to Cartesian space:
 Initial RMS(Int)=    0.0662221881
Transforming coordinates:
 Iter   0:  RMS(Cart)=    0.0687473982 RMS(Int)=    0.0659827903
 Iter   5:  RMS(Cart)=    0.0000003488 RMS(Int)=    0.0000003647
Imposing constraints:
 Iter   0:  RMS(Cart)=    0.0000000035 RMS(Int)=    0.0000000000
CONVERGED
done
Storing new coordinates                 .... done
Current trust radius                    ....     0.6750
Energy difference                       ....     0.3025 kcal/mol
Maximum difference                      ....     0.2700 kcal/mol
New trust radius                        ....     0.4500

                                .--------------------.
          ----------------------|Geometry convergence|-------------------------
          Item                value                   Tolerance       Converged
          ---------------------------------------------------------------------
          Energy change      -0.0004821050            0.0000050000      NO
          RMS gradient        0.0021199478            0.0001000000      NO
          MAX gradient        0.0062309165            0.0003000000      NO
          RMS step            0.0662221881            0.0020000000      NO
          MAX step            0.1932652460            0.0040000000      NO
          ........................................................
          Max(Bonds)      0.0000      Max(Angles)    3.93
          Max(Dihed)       11.07      Max(Improp)    0.00
          ---------------------------------------------------------------------

Geometry step timings:
Preparation and reading OPT file:      0.001 s ( 7.846 %)
Internal coordinates            :      0.000 s ( 0.184 %)
B/P matrices and projection     :      0.000 s ( 2.019 %)
Hessian update/contruction      :      0.002 s (36.831 %)
Making the step                 :      0.001 s (20.251 %)
Converting the step to Cartesian:      0.001 s ( 8.581 %)
Storing new data                :      0.000 s ( 4.023 %)
Checking convergence            :      0.000 s ( 0.061 %)
GOAT stuff                      :      0.000 s ( 0.015 %)
Final printing                  :      0.001 s (20.174 %)
Total time                      :      0.007 s

Time for energy+gradient        :      0.675 s
Time for complete geometry iter :      0.723 s

         *************************************************************
         *                GEOMETRY OPTIMIZATION CYCLE  14            *
         *************************************************************
------------------------------------------------------------------------------
                         ORCA GEOMETRY RELAXATION STEP
------------------------------------------------------------------------------

Reading the OPT-File                    .... done

---------------------------------------------
FINAL SINGLE POINT ENERGY        -1.445128584086
---------------------------------------------

Getting information on internals        .... done
Copying old internal coords+grads       .... done
Making the new internal coordinates     .... (2022 redundants) done
Validating the new internal coordinates .... (2022 redundants) done
Calculating the B-matrix                .... done
Calculating the G,G- and P matrices     .... done
Transforming gradient to internals      .... done
Projecting the internal gradient        .... done
Number of atoms                         ....   9
Number of internal coordinates          ....  30
Current Energy                          ....    -1.445128584 Eh
Current gradient norm                   ....     0.014361822 Eh/bohr
Maximum allowed component of the step   ....  0.300
Current trust radius                    ....  0.450
Updating the Hessian (BFGS)             .... done
Making uphill step                      .... done
Uphill step size                        .... 0.282653
Converting the step to Cartesian space:
 Initial RMS(Int)=    0.0516050714
Transforming coordinates:
 Iter   0:  RMS(Cart)=    0.0565160038 RMS(Int)=    0.0514707306
 Iter   5:  RMS(Cart)=    0.0000000450 RMS(Int)=    0.0000000457
Imposing constraints:
 Iter   0:  RMS(Cart)=    0.0000000012 RMS(Int)=    0.0000000000
CONVERGED
done
Storing new coordinates                 .... done
Current trust radius                    ....     0.4500
Energy difference                       ....     0.0505 kcal/mol
Maximum difference                      ....     0.2700 kcal/mol
New trust radius                        ....     0.6750

                                .--------------------.
          ----------------------|Geometry convergence|-------------------------
          Item                value                   Tolerance       Converged
          ---------------------------------------------------------------------
          Energy change      -0.0000804676            0.0000050000      NO
          RMS gradient        0.0020107888            0.0001000000      NO
          MAX gradient        0.0058637625            0.0003000000      NO
          RMS step            0.0516050714            0.0020000000      NO
          MAX step            0.1269816906            0.0040000000      NO
          ........................................................
          Max(Bonds)      0.0000      Max(Angles)    2.13
          Max(Dihed)        7.28      Max(Improp)    0.00
          ---------------------------------------------------------------------

Geometry step timings:
Preparation and reading OPT file:      0.001 s (12.239 %)
Internal coordinates            :      0.000 s ( 0.147 %)
B/P matrices and projection     :      0.000 s ( 1.577 %)
Hessian update/contruction      :      0.003 s (41.141 %)
Making the step                 :      0.001 s (16.021 %)
Converting the step to Cartesian:      0.001 s ( 8.739 %)
Storing new data                :      0.000 s ( 3.634 %)
Checking convergence            :      0.000 s ( 0.040 %)
GOAT stuff                      :      0.000 s ( 0.000 %)
Final printing                  :      0.001 s (16.448 %)
Total time                      :      0.007 s

Time for energy+gradient        :      0.678 s
Time for complete geometry iter :      0.751 s

         *************************************************************
         *                GEOMETRY OPTIMIZATION CYCLE  15            *
         *************************************************************
------------------------------------------------------------------------------
                         ORCA GEOMETRY RELAXATION STEP
------------------------------------------------------------------------------

Reading the OPT-File                    .... done

---------------------------------------------
FINAL SINGLE POINT ENERGY        -1.445779474834
---------------------------------------------

Getting information on internals        .... done
Copying old internal coords+grads       .... done
Making the new internal coordinates     .... (2022 redundants) done
Validating the new internal coordinates .... (2022 redundants) done
Calculating the B-matrix                .... done
Calculating the G,G- and P matrices     .... done
Transforming gradient to internals      .... done
Projecting the internal gradient        .... done
Number of atoms                         ....   9
Number of internal coordinates          ....  30
Current Energy                          ....    -1.445779475 Eh
Current gradient norm                   ....     0.012289756 Eh/bohr
Maximum allowed component of the step   ....  0.300
Current trust radius                    ....  0.675
Updating the Hessian (BFGS)             .... done
Making uphill step                      .... done
Uphill step size                        .... 0.287105
Stopped uphill after  14 steps          .... angle > 90
Converting the step to Cartesian space:
 Initial RMS(Int)=    0.0524179244
Transforming coordinates:
 Iter   0:  RMS(Cart)=    0.0574796294 RMS(Int)=    0.0522632180
 Iter   5:  RMS(Cart)=    0.0000000859 RMS(Int)=    0.0000000850
Imposing constraints:
 Iter   0:  RMS(Cart)=    0.0000000030 RMS(Int)=    0.0000000000
CONVERGED
done
Storing new coordinates                 .... done
The predicted energy change is          ....    -0.000250676
Previously predicted energy change      ....    -0.000245130
Actually observed energy change         ....    -0.000650891
Ratio of predicted to observed change   ....     2.655286269
New trust radius                        ....     0.450000000

                                .--------------------.
          ----------------------|Geometry convergence|-------------------------
          Item                value                   Tolerance       Converged
          ---------------------------------------------------------------------
          Energy change      -0.0006508907            0.0000050000      NO
          RMS gradient        0.0017359287            0.0001000000      NO
          MAX gradient        0.0056199874            0.0003000000      NO
          RMS step            0.0524179244            0.0020000000      NO
          MAX step            0.1095075818            0.0040000000      NO
          ........................................................
          Max(Bonds)      0.0000      Max(Angles)    2.10
          Max(Dihed)        6.27      Max(Improp)    0.00
          ---------------------------------------------------------------------

Geometry step timings:
Preparation and reading OPT file:      0.001 s (13.165 %)
Internal coordinates            :      0.000 s ( 0.149 %)
B/P matrices and projection     :      0.000 s ( 1.625 %)
Hessian update/contruction      :      0.003 s (36.787 %)
Making the step                 :      0.002 s (20.330 %)
Converting the step to Cartesian:      0.001 s ( 7.057 %)
Storing new data                :      0.000 s ( 3.779 %)
Checking convergence            :      0.000 s ( 0.068 %)
GOAT stuff                      :      0.000 s ( 0.000 %)
Final printing                  :      0.001 s (17.026 %)
Total time                      :      0.007 s

Time for energy+gradient        :      0.693 s
Time for complete geometry iter :      0.755 s

         *************************************************************
         *                GEOMETRY OPTIMIZATION CYCLE  16            *
         *************************************************************
------------------------------------------------------------------------------
                         ORCA GEOMETRY RELAXATION STEP
------------------------------------------------------------------------------

Reading the OPT-File                    .... done

---------------------------------------------
FINAL SINGLE POINT ENERGY        -1.445933260566
---------------------------------------------

Getting information on internals        .... done
Copying old internal coords+grads       .... done
Making the new internal coordinates     .... (2022 redundants) done
Validating the new internal coordinates .... (2022 redundants) done
Calculating the B-matrix                .... done
Calculating the G,G- and P matrices     .... done
Transforming gradient to internals      .... done
Projecting the internal gradient        .... done
Number of atoms                         ....   9
Number of internal coordinates          ....  30
Current Energy                          ....    -1.445933261 Eh
Current gradient norm                   ....     0.011152910 Eh/bohr
Maximum allowed component of the step   ....  0.300
Current trust radius                    ....  0.300
Evaluating the initial hessian          ....  (Almloef) done
Projecting the Hessian                  .... done
Forming the augmented Hessian           .... done
Diagonalizing the augmented Hessian     .... done
Last element of RFO vector              ....  0.999528564
Lowest eigenvalues of augmented Hessian:
 -0.000158696  0.012726797  0.021297855  0.108651643  0.132192735
Length of the computed step             ....  0.030717087
The final length of the internal step   ....  0.030717087
Converting the step to Cartesian space:
 Initial RMS(Int)=    0.0056081472
Transforming coordinates:
 Iter   0:  RMS(Cart)=    0.0062967916 RMS(Int)=    0.0056058280
done
Storing new coordinates                 .... done
The predicted energy change is          ....    -0.000079423
Previously predicted energy change      ....    -0.000250676
Actually observed energy change         ....    -0.000153786
Ratio of predicted to observed change   ....     0.613483908
New trust radius                        ....     0.300000000

                                .--------------------.
          ----------------------|Geometry convergence|-------------------------
          Item                value                   Tolerance       Converged
          ---------------------------------------------------------------------
          Energy change      -0.0001537857            0.0000050000      NO
          RMS gradient        0.0014527491            0.0001000000      NO
          MAX gradient        0.0054495273            0.0003000000      NO
          RMS step            0.0056081472            0.0020000000      NO
          MAX step            0.0149872831            0.0040000000      NO
          ........................................................
          Max(Bonds)      0.0051      Max(Angles)    0.29
          Max(Dihed)        0.86      Max(Improp)    0.00
          ---------------------------------------------------------------------

Geometry step timings:
Preparation and reading OPT file:      0.001 s (17.633 %)
Internal coordinates            :      0.000 s ( 0.242 %)
B/P matrices and projection     :      0.000 s ( 2.572 %)
Hessian update/contruction      :      0.002 s (45.517 %)
Making the step                 :      0.000 s ( 1.659 %)
Converting the step to Cartesian:      0.000 s ( 0.373 %)
Storing new data                :      0.000 s ( 5.797 %)
Checking convergence            :      0.000 s ( 0.093 %)
GOAT stuff                      :      0.000 s ( 0.019 %)
Final printing                  :      0.001 s (26.076 %)
Total time                      :      0.005 s

Time for energy+gradient        :      0.735 s
Time for complete geometry iter :      0.802 s

         *************************************************************
         *                GEOMETRY OPTIMIZATION CYCLE  17            *
         *************************************************************
------------------------------------------------------------------------------
                         ORCA GEOMETRY RELAXATION STEP
------------------------------------------------------------------------------

Reading the OPT-File                    .... done

---------------------------------------------
FINAL SINGLE POINT ENERGY        -1.445951484946
---------------------------------------------

Getting information on internals        .... done
Copying old internal coords+grads       .... done
Making the new internal coordinates     .... (2022 redundants) done
Validating the new internal coordinates .... (2022 redundants) done
Calculating the B-matrix                .... done
Calculating the G,G- and P matrices     .... done
Transforming gradient to internals      .... done
Projecting the internal gradient        .... done
Number of atoms                         ....   9
Number of internal coordinates          ....  30
Current Energy                          ....    -1.445951485 Eh
Current gradient norm                   ....     0.004529754 Eh/bohr
Maximum allowed component of the step   ....  0.300
Current trust radius                    ....  0.300
Updating the Hessian (BFGS)             .... done
Forming the augmented Hessian           .... done
Diagonalizing the augmented Hessian     .... done
Last element of RFO vector              ....  0.999145972
Lowest eigenvalues of augmented Hessian:
 -0.000063171  0.011656564  0.021100011  0.095762091  0.127193034
Length of the computed step             ....  0.041355121
The final length of the internal step   ....  0.041355121
Converting the step to Cartesian space:
 Initial RMS(Int)=    0.0075503775
Transforming coordinates:
 Iter   0:  RMS(Cart)=    0.0081599030 RMS(Int)=    0.0075500125
done
Storing new coordinates                 .... done
The predicted energy change is          ....    -0.000031640
Previously predicted energy change      ....    -0.000079423
Actually observed energy change         ....    -0.000018224
Ratio of predicted to observed change   ....     0.229460170
New trust radius                        ....     0.200000000

                                .--------------------.
          ----------------------|Geometry convergence|-------------------------
          Item                value                   Tolerance       Converged
          ---------------------------------------------------------------------
          Energy change      -0.0000182244            0.0000050000      NO
          RMS gradient        0.0005668315            0.0001000000      NO
          MAX gradient        0.0020807337            0.0003000000      NO
          RMS step            0.0075503775            0.0020000000      NO
          MAX step            0.0220738368            0.0040000000      NO
          ........................................................
          Max(Bonds)      0.0038      Max(Angles)    0.32
          Max(Dihed)        1.26      Max(Improp)    0.00
          ---------------------------------------------------------------------

Geometry step timings:
Preparation and reading OPT file:      0.001 s ( 5.188 %)
Internal coordinates            :      0.000 s ( 0.049 %)
B/P matrices and projection     :      0.000 s ( 0.607 %)
Hessian update/contruction      :      0.015 s (81.711 %)
Making the step                 :      0.000 s ( 0.394 %)
Converting the step to Cartesian:      0.000 s ( 0.071 %)
Storing new data                :      0.000 s ( 1.861 %)
Checking convergence            :      0.000 s ( 0.016 %)
GOAT stuff                      :      0.000 s ( 0.005 %)
Final printing                  :      0.002 s (10.091 %)
Total time                      :      0.018 s

Time for energy+gradient        :      0.684 s
Time for complete geometry iter :      0.885 s

         *************************************************************
         *                GEOMETRY OPTIMIZATION CYCLE  18            *
         *************************************************************
------------------------------------------------------------------------------
                         ORCA GEOMETRY RELAXATION STEP
------------------------------------------------------------------------------

Reading the OPT-File                    .... done

---------------------------------------------
FINAL SINGLE POINT ENERGY        -1.446217981460
---------------------------------------------

Getting information on internals        .... done
Copying old internal coords+grads       .... done
Making the new internal coordinates     .... (2022 redundants) done
Validating the new internal coordinates .... (2022 redundants) done
Calculating the B-matrix                .... done
Calculating the G,G- and P matrices     .... done
Transforming gradient to internals      .... done
Projecting the internal gradient        .... done
Number of atoms                         ....   9
Number of internal coordinates          ....  30
Current Energy                          ....    -1.446217981 Eh
Current gradient norm                   ....     0.001976474 Eh/bohr
Maximum allowed component of the step   ....  0.300
Current trust radius                    ....  0.200
Updating the Hessian (BFGS)             .... done
Forming the augmented Hessian           .... done
Diagonalizing the augmented Hessian     .... done
Last element of RFO vector              ....  0.999555370
Lowest eigenvalues of augmented Hessian:
 -0.000014424  0.009070394  0.020592578  0.086690434  0.120048125
Length of the computed step             ....  0.029830427
The final length of the internal step   ....  0.029830427
Converting the step to Cartesian space:
 Initial RMS(Int)=    0.0054462660
Transforming coordinates:
 Iter   0:  RMS(Cart)=    0.0058137006 RMS(Int)=    0.0054463590
done
Storing new coordinates                 .... done
The predicted energy change is          ....    -0.000007219
Previously predicted energy change      ....    -0.000031640
Actually observed energy change         ....    -0.000266497
Ratio of predicted to observed change   ....     8.422846256
New trust radius                        ....     0.133333333

                                .--------------------.
          ----------------------|Geometry convergence|-------------------------
          Item                value                   Tolerance       Converged
          ---------------------------------------------------------------------
          Energy change      -0.0002664965            0.0000050000      NO
          RMS gradient        0.0002586932            0.0001000000      NO
          MAX gradient        0.0007867435            0.0003000000      NO
          RMS step            0.0054462660            0.0020000000      NO
          MAX step            0.0152794724            0.0040000000      NO
          ........................................................
          Max(Bonds)      0.0005      Max(Angles)    0.21
          Max(Dihed)        0.88      Max(Improp)    0.00
          ---------------------------------------------------------------------

Geometry step timings:
Preparation and reading OPT file:      0.001 s ( 9.407 %)
Internal coordinates            :      0.000 s ( 0.136 %)
B/P matrices and projection     :      0.000 s ( 1.712 %)
Hessian update/contruction      :      0.004 s (60.915 %)
Making the step                 :      0.000 s ( 1.288 %)
Converting the step to Cartesian:      0.000 s ( 0.237 %)
Storing new data                :      0.000 s ( 7.102 %)
Checking convergence            :      0.000 s ( 0.068 %)
GOAT stuff                      :      0.000 s ( 0.017 %)
Final printing                  :      0.001 s (19.102 %)
Total time                      :      0.006 s

Time for energy+gradient        :      0.770 s
Time for complete geometry iter :      0.809 s

         *************************************************************
         *                GEOMETRY OPTIMIZATION CYCLE  19            *
         *************************************************************
------------------------------------------------------------------------------
                         ORCA GEOMETRY RELAXATION STEP
------------------------------------------------------------------------------

Reading the OPT-File                    .... done

---------------------------------------------
FINAL SINGLE POINT ENERGY        -1.446240832029
---------------------------------------------

Getting information on internals        .... done
Copying old internal coords+grads       .... done
Making the new internal coordinates     .... (2022 redundants) done
Validating the new internal coordinates .... (2022 redundants) done
Calculating the B-matrix                .... done
Calculating the G,G- and P matrices     .... done
Transforming gradient to internals      .... done
Projecting the internal gradient        .... done
Number of atoms                         ....   9
Number of internal coordinates          ....  30
Current Energy                          ....    -1.446240832 Eh
Current gradient norm                   ....     0.002126097 Eh/bohr
Maximum allowed component of the step   ....  0.300
Current trust radius                    ....  0.133
Updating the Hessian (BFGS)             .... done
Forming the augmented Hessian           .... done
Diagonalizing the augmented Hessian     .... done
Last element of RFO vector              ....  0.996526273
Lowest eigenvalues of augmented Hessian:
 -0.000032644  0.003692381  0.019708723  0.084538396  0.112577488
Length of the computed step             ....  0.083569264
The final length of the internal step   ....  0.083569264
Converting the step to Cartesian space:
 Initial RMS(Int)=    0.0152575903
Transforming coordinates:
 Iter   0:  RMS(Cart)=    0.0158025298 RMS(Int)=    1.1435733489
done
Storing new coordinates                 .... done
The predicted energy change is          ....    -0.000016436
Previously predicted energy change      ....    -0.000007219
Actually observed energy change         ....    -0.000022851
Ratio of predicted to observed change   ....     3.165488885
New trust radius                        ....     0.100000000

                                .--------------------.
          ----------------------|Geometry convergence|-------------------------
          Item                value                   Tolerance       Converged
          ---------------------------------------------------------------------
          Energy change      -0.0000228506            0.0000050000      NO
          RMS gradient        0.0002618045            0.0001000000      NO
          MAX gradient        0.0009483235            0.0003000000      NO
          RMS step            0.0152575903            0.0020000000      NO
          MAX step            0.0402718703            0.0040000000      NO
          ........................................................
          Max(Bonds)      0.0008      Max(Angles)    0.59
          Max(Dihed)        2.31      Max(Improp)    0.00
          ---------------------------------------------------------------------

Geometry step timings:
Preparation and reading OPT file:      0.001 s (16.925 %)
Internal coordinates            :      0.000 s ( 0.237 %)
B/P matrices and projection     :      0.000 s ( 2.587 %)
Hessian update/contruction      :      0.003 s (49.790 %)
Making the step                 :      0.000 s ( 1.785 %)
Converting the step to Cartesian:      0.000 s ( 0.419 %)
Storing new data                :      0.000 s ( 6.595 %)
Checking convergence            :      0.000 s ( 0.091 %)
GOAT stuff                      :      0.000 s ( 0.000 %)
Final printing                  :      0.001 s (21.498 %)
Total time                      :      0.005 s

Time for energy+gradient        :      0.669 s
Time for complete geometry iter :      0.701 s

         *************************************************************
         *                GEOMETRY OPTIMIZATION CYCLE  20            *
         *************************************************************
------------------------------------------------------------------------------
                         ORCA GEOMETRY RELAXATION STEP
------------------------------------------------------------------------------

Reading the OPT-File                    .... done

---------------------------------------------
FINAL SINGLE POINT ENERGY        -1.446173261634
---------------------------------------------

Getting information on internals        .... done
Copying old internal coords+grads       .... done
Making the new internal coordinates     .... (2022 redundants) done
Validating the new internal coordinates .... (2022 redundants) done
Calculating the B-matrix                .... done
Calculating the G,G- and P matrices     .... done
Transforming gradient to internals      .... done
Projecting the internal gradient        .... done
Number of atoms                         ....   9
Number of internal coordinates          ....  30
Current Energy                          ....    -1.446173262 Eh
Current gradient norm                   ....     0.001742323 Eh/bohr
[...]
GOAT stuff                      :      0.000 s ( 0.000 %)
Final printing                  :      0.001 s (14.748 %)
Total time                      :      0.007 s

Time for energy+gradient        :      0.709 s
Time for complete geometry iter :      0.733 s

         *************************************************************
         *                GEOMETRY OPTIMIZATION CYCLE 693            *
         *************************************************************
------------------------------------------------------------------------------
                         ORCA GEOMETRY RELAXATION STEP
------------------------------------------------------------------------------

Reading the OPT-File                    .... done

---------------------------------------------
FINAL SINGLE POINT ENERGY        -1.445720876443
---------------------------------------------

Getting information on internals        .... done
Copying old internal coords+grads       .... done
Making the new internal coordinates     .... (2022 redundants) done
Validating the new internal coordinates .... (2022 redundants) done
Calculating the B-matrix                .... done
Calculating the G,G- and P matrices     .... done
Transforming gradient to internals      .... done
Projecting the internal gradient        .... done
Number of atoms                         ....   9
Number of internal coordinates          ....  30
Current Energy                          ....    -1.445720876 Eh
Current gradient norm                   ....     0.012150801 Eh/bohr
Maximum allowed component of the step   ....  0.300
Current trust radius                    ....  0.675
Updating the Hessian (BFGS)             .... done
Making uphill step                      .... done
Uphill step size                        .... 0.642720
Converting the step to Cartesian space:
 Initial RMS(Int)=    0.1173440670
Transforming coordinates:
 Iter   0:  RMS(Cart)=    0.1106621389 RMS(Int)=    0.1161215844
 Iter   5:  RMS(Cart)=    0.0000360729 RMS(Int)=    0.0000428558
 Iter  10:  RMS(Cart)=    0.0000000399 RMS(Int)=    0.0000000426
Imposing constraints:
 Iter   0:  RMS(Cart)=    0.0000000024 RMS(Int)=    0.0000000001
CONVERGED
done
Storing new coordinates                 .... done
Current trust radius                    ....     0.6750
Energy difference                       ....     0.0626 kcal/mol
Maximum difference                      ....     0.2700 kcal/mol
New trust radius                        ....     0.7000

                                .--------------------.
          ----------------------|Geometry convergence|-------------------------
          Item                value                   Tolerance       Converged
          ---------------------------------------------------------------------
          Energy change      -0.0000998135            0.0000050000      NO
          RMS gradient        0.0017079435            0.0001000000      NO
          MAX gradient        0.0070734367            0.0003000000      NO
          RMS step            0.1173440670            0.0020000000      NO
          MAX step            0.3000000000            0.0040000000      NO
          ........................................................
          Max(Bonds)      0.0000      Max(Angles)    1.21
          Max(Dihed)       17.19      Max(Improp)    0.00
          ---------------------------------------------------------------------

Geometry step timings:
Preparation and reading OPT file:      0.000 s ( 5.926 %)
Internal coordinates            :      0.000 s ( 0.160 %)
B/P matrices and projection     :      0.000 s ( 1.746 %)
Hessian update/contruction      :      0.004 s (45.218 %)
Making the step                 :      0.002 s (21.343 %)
Converting the step to Cartesian:      0.001 s ( 6.221 %)
Storing new data                :      0.000 s ( 4.475 %)
Checking convergence            :      0.000 s ( 0.049 %)
GOAT stuff                      :      0.000 s ( 0.000 %)
Final printing                  :      0.001 s (14.827 %)
Total time                      :      0.008 s

Time for energy+gradient        :      0.669 s
Time for complete geometry iter :      0.734 s

         *************************************************************
         *                GEOMETRY OPTIMIZATION CYCLE 694            *
         *************************************************************
------------------------------------------------------------------------------
                         ORCA GEOMETRY RELAXATION STEP
------------------------------------------------------------------------------

Reading the OPT-File                    .... done

---------------------------------------------
FINAL SINGLE POINT ENERGY        -1.445244378994
---------------------------------------------

Getting information on internals        .... done
Copying old internal coords+grads       .... done
Making the new internal coordinates     .... (2022 redundants) done
Validating the new internal coordinates .... (2022 redundants) done
Calculating the B-matrix                .... done
Calculating the G,G- and P matrices     .... done
Transforming gradient to internals      .... done
Projecting the internal gradient        .... done
Number of atoms                         ....   9
Number of internal coordinates          ....  30
Current Energy                          ....    -1.445244379 Eh
Current gradient norm                   ....     0.012059373 Eh/bohr
Maximum allowed component of the step   ....  0.300
Current trust radius                    ....  0.700
Updating the Hessian (BFGS)             .... done
Making uphill step                      .... done
Uphill step size                        .... 0.530896
Converting the step to Cartesian space:
 Initial RMS(Int)=    0.0969278168
Transforming coordinates:
 Iter   0:  RMS(Cart)=    0.0701598707 RMS(Int)=    0.0948008637
 Iter   5:  RMS(Cart)=    0.0000619686 RMS(Int)=    0.0000717558
 Iter  10:  RMS(Cart)=    0.0000000944 RMS(Int)=    0.0000001002
Imposing constraints:
 Iter   0:  RMS(Cart)=    0.0000000030 RMS(Int)=    0.0000000001
CONVERGED
done
Storing new coordinates                 .... done
Current trust radius                    ....     0.7000
Energy difference                       ....     0.2990 kcal/mol
Maximum difference                      ....     0.2700 kcal/mol
New trust radius                        ....     0.4667

                                .--------------------.
          ----------------------|Geometry convergence|-------------------------
          Item                value                   Tolerance       Converged
          ---------------------------------------------------------------------
          Energy change       0.0004764974            0.0000050000      NO
          RMS gradient        0.0014383712            0.0001000000      NO
          MAX gradient        0.0067329113            0.0003000000      NO
          RMS step            0.0969278168            0.0020000000      NO
          MAX step            0.3000000000            0.0040000000      NO
          ........................................................
          Max(Bonds)      0.0000      Max(Angles)    2.46
          Max(Dihed)       17.19      Max(Improp)    0.00
          ---------------------------------------------------------------------

Geometry step timings:
Preparation and reading OPT file:      0.001 s ( 9.984 %)
Internal coordinates            :      0.000 s ( 0.125 %)
B/P matrices and projection     :      0.000 s ( 1.311 %)
Hessian update/contruction      :      0.004 s (48.553 %)
Making the step                 :      0.002 s (17.426 %)
Converting the step to Cartesian:      0.001 s ( 7.545 %)
Storing new data                :      0.000 s ( 3.499 %)
Checking convergence            :      0.000 s ( 0.046 %)
GOAT stuff                      :      0.000 s ( 0.000 %)
Final printing                  :      0.001 s (11.477 %)
Total time                      :      0.009 s

Time for energy+gradient        :      0.692 s
Time for complete geometry iter :      0.719 s

         *************************************************************
         *                GEOMETRY OPTIMIZATION CYCLE 695            *
         *************************************************************
------------------------------------------------------------------------------
                         ORCA GEOMETRY RELAXATION STEP
------------------------------------------------------------------------------

Reading the OPT-File                    .... done

---------------------------------------------
FINAL SINGLE POINT ENERGY        -1.445392837599
---------------------------------------------

Getting information on internals        .... done
Copying old internal coords+grads       .... done
Making the new internal coordinates     .... (2022 redundants) done
Validating the new internal coordinates .... (2022 redundants) done
Calculating the B-matrix                .... done
Calculating the G,G- and P matrices     .... done
Transforming gradient to internals      .... done
Projecting the internal gradient        .... done
Number of atoms                         ....   9
Number of internal coordinates          ....  30
Current Energy                          ....    -1.445392838 Eh
Current gradient norm                   ....     0.014308166 Eh/bohr
Maximum allowed component of the step   ....  0.300
Current trust radius                    ....  0.467
Updating the Hessian (BFGS)             .... done
Making uphill step                      .... done
Uphill step size                        .... 0.466447
Converting the step to Cartesian space:
 Initial RMS(Int)=    0.0851611153
Transforming coordinates:
 Iter   0:  RMS(Cart)=    0.0756895308 RMS(Int)=    0.0846131162
 Iter   5:  RMS(Cart)=    0.0000077982 RMS(Int)=    0.0000089994
Imposing constraints:
 Iter   0:  RMS(Cart)=    0.0000000076 RMS(Int)=    0.0000000001
CONVERGED
done
Storing new coordinates                 .... done
Current trust radius                    ....     0.4667
Energy difference                       ....     0.0932 kcal/mol
Maximum difference                      ....     0.2700 kcal/mol
New trust radius                        ....     0.7000

                                .--------------------.
          ----------------------|Geometry convergence|-------------------------
          Item                value                   Tolerance       Converged
          ---------------------------------------------------------------------
          Energy change      -0.0001484586            0.0000050000      NO
          RMS gradient        0.0023420593            0.0001000000      NO
          MAX gradient        0.0073433096            0.0003000000      NO
          RMS step            0.0851611153            0.0020000000      NO
          MAX step            0.2371028241            0.0040000000      NO
          ........................................................
          Max(Bonds)      0.0000      Max(Angles)    1.47
          Max(Dihed)       13.58      Max(Improp)    0.00
          ---------------------------------------------------------------------

Geometry step timings:
Preparation and reading OPT file:      0.001 s ( 4.844 %)
Internal coordinates            :      0.000 s ( 0.067 %)
B/P matrices and projection     :      0.000 s ( 0.690 %)
Hessian update/contruction      :      0.011 s (68.451 %)
Making the step                 :      0.002 s (11.384 %)
Converting the step to Cartesian:      0.001 s ( 6.049 %)
Storing new data                :      0.000 s ( 2.253 %)
Checking convergence            :      0.000 s ( 0.030 %)
GOAT stuff                      :      0.000 s ( 0.000 %)
Final printing                  :      0.001 s ( 6.225 %)
Total time                      :      0.017 s

Time for energy+gradient        :      0.737 s
Time for complete geometry iter :      0.770 s

         *************************************************************
         *                GEOMETRY OPTIMIZATION CYCLE 696            *
         *************************************************************
------------------------------------------------------------------------------
                         ORCA GEOMETRY RELAXATION STEP
------------------------------------------------------------------------------

Reading the OPT-File                    .... done

---------------------------------------------
FINAL SINGLE POINT ENERGY        -1.445146107528
---------------------------------------------

Getting information on internals        .... done
Copying old internal coords+grads       .... done
Making the new internal coordinates     .... (2022 redundants) done
Validating the new internal coordinates .... (2022 redundants) done
Calculating the B-matrix                .... done
Calculating the G,G- and P matrices     .... done
Transforming gradient to internals      .... done
Projecting the internal gradient        .... done
Number of atoms                         ....   9
Number of internal coordinates          ....  30
Current Energy                          ....    -1.445146108 Eh
Current gradient norm                   ....     0.012108731 Eh/bohr
Maximum allowed component of the step   ....  0.300
Current trust radius                    ....  0.700
Updating the Hessian (BFGS)             .... done
Making uphill step                      .... done
Uphill step size                        .... 0.558754
Converting the step to Cartesian space:
 Initial RMS(Int)=    0.1020140225
Transforming coordinates:
 Iter   0:  RMS(Cart)=    0.0865680028 RMS(Int)=    0.1003883212
 Iter   5:  RMS(Cart)=    0.0000493190 RMS(Int)=    0.0000569692
 Iter  10:  RMS(Cart)=    0.0000000613 RMS(Int)=    0.0000000663
Imposing constraints:
 Iter   0:  RMS(Cart)=    0.0000000016 RMS(Int)=    0.0000000001
CONVERGED
done
Storing new coordinates                 .... done
Current trust radius                    ....     0.7000
Energy difference                       ....     0.1548 kcal/mol
Maximum difference                      ....     0.2700 kcal/mol
New trust radius                        ....     0.7000

                                .--------------------.
          ----------------------|Geometry convergence|-------------------------
          Item                value                   Tolerance       Converged
          ---------------------------------------------------------------------
          Energy change       0.0002467301            0.0000050000      NO
          RMS gradient        0.0015501005            0.0001000000      NO
          MAX gradient        0.0071467140            0.0003000000      NO
          RMS step            0.1020140225            0.0020000000      NO
          MAX step            0.3000000000            0.0040000000      NO
          ........................................................
          Max(Bonds)      0.0000      Max(Angles)    1.73
          Max(Dihed)       17.19      Max(Improp)    0.00
          ---------------------------------------------------------------------

Geometry step timings:
Preparation and reading OPT file:      0.001 s ( 6.405 %)
Internal coordinates            :      0.000 s ( 0.149 %)
B/P matrices and projection     :      0.000 s ( 1.590 %)
Hessian update/contruction      :      0.004 s (47.970 %)
Making the step                 :      0.001 s (16.653 %)
Converting the step to Cartesian:      0.001 s ( 6.542 %)
Storing new data                :      0.000 s ( 3.511 %)
Checking convergence            :      0.000 s ( 0.057 %)
GOAT stuff                      :      0.000 s ( 0.000 %)
Final printing                  :      0.001 s (17.099 %)
Total time                      :      0.009 s

Time for energy+gradient        :      0.742 s
Time for complete geometry iter :      0.770 s

         *************************************************************
         *                GEOMETRY OPTIMIZATION CYCLE 697            *
         *************************************************************
------------------------------------------------------------------------------
                         ORCA GEOMETRY RELAXATION STEP
------------------------------------------------------------------------------

Reading the OPT-File                    .... done

---------------------------------------------
FINAL SINGLE POINT ENERGY        -1.445248864995
---------------------------------------------

Getting information on internals        .... done
Copying old internal coords+grads       .... done
Making the new internal coordinates     .... (2022 redundants) done
Validating the new internal coordinates .... (2022 redundants) done
Calculating the B-matrix                .... done
Calculating the G,G- and P matrices     .... done
Transforming gradient to internals      .... done
Projecting the internal gradient        .... done
Number of atoms                         ....   9
Number of internal coordinates          ....  30
Current Energy                          ....    -1.445248865 Eh
Current gradient norm                   ....     0.015619947 Eh/bohr
Maximum allowed component of the step   ....  0.300
Current trust radius                    ....  0.700
Updating the Hessian (BFGS)             .... done
Making uphill step                      .... done
Uphill step size                        .... 0.645161
Converting the step to Cartesian space:
 Initial RMS(Int)=    0.1177897311
Transforming coordinates:
 Iter   0:  RMS(Cart)=    0.1084386644 RMS(Int)=    0.1166223204
 Iter   5:  RMS(Cart)=    0.0000352034 RMS(Int)=    0.0000413495
 Iter  10:  RMS(Cart)=    0.0000000381 RMS(Int)=    0.0000000409
Imposing constraints:
 Iter   0:  RMS(Cart)=    0.0000000025 RMS(Int)=    0.0000000001
CONVERGED
done
Storing new coordinates                 .... done
Current trust radius                    ....     0.7000
Energy difference                       ....     0.0645 kcal/mol
Maximum difference                      ....     0.2700 kcal/mol
New trust radius                        ....     0.7000

                                .--------------------.
          ----------------------|Geometry convergence|-------------------------
          Item                value                   Tolerance       Converged
          ---------------------------------------------------------------------
          Energy change      -0.0001027575            0.0000050000      NO
          RMS gradient        0.0025702692            0.0001000000      NO
          MAX gradient        0.0073556319            0.0003000000      NO
          RMS step            0.1177897311            0.0020000000      NO
          MAX step            0.3000000000            0.0040000000      NO
          ........................................................
          Max(Bonds)      0.0000      Max(Angles)    1.82
          Max(Dihed)       17.19      Max(Improp)    0.00
          ---------------------------------------------------------------------

Geometry step timings:
Preparation and reading OPT file:      0.001 s ( 6.958 %)
Internal coordinates            :      0.000 s ( 0.148 %)
B/P matrices and projection     :      0.000 s ( 1.696 %)
Hessian update/contruction      :      0.004 s (43.540 %)
Making the step                 :      0.001 s (17.689 %)
Converting the step to Cartesian:      0.001 s ( 6.355 %)
Storing new data                :      0.000 s ( 5.323 %)
Checking convergence            :      0.000 s ( 0.049 %)
GOAT stuff                      :      0.000 s ( 0.000 %)
Final printing                  :      0.001 s (18.205 %)
Total time                      :      0.008 s

Time for energy+gradient        :      0.762 s
Time for complete geometry iter :      0.824 s

         *************************************************************
         *                GEOMETRY OPTIMIZATION CYCLE 698            *
         *************************************************************
