                                 *****************
                                 * O   R   C   A *
                                 *****************

                       *****************************
                       * Geometry Optimization Run *
                       *****************************

Geometry optimization settings:
Update method            Update   .... BFGS
Choice of coordinates    CoordSys .... (2022) Redundant Internals
Initial Hessian          InHess   .... Almloef's Model
Max. no of cycles        MaxIter  .... 9000

Convergence Tolerances:
Energy Change            TolE     ....  5.0000e-06 Eh
Max. Gradient            TolMAXG  ....  3.0000e-04 Eh/bohr
RMS Gradient             TolRMSG  ....  1.0000e-04 Eh/bohr
Max. Displacement        TolMAXD  ....  4.0000e-03 bohr
RMS Displacement         TolRMSD  ....  2.0000e-03 bohr
Strict Convergence                .... False

------------------------------------------------------------------------------
                        ORCA OPTIMIZATION COORDINATE SETUP
------------------------------------------------------------------------------

The optimization will be done in redundant internal coordinates (2022)
Making redundant internal coordinates   ...  (2022 redundants) done
Evaluating the initial hessian          ...  (Almloef) done
Evaluating the coordinates              ...  done
Calculating the B-matrix                .... done
Calculating the G-matrix                .... done
Diagonalizing the G-matrix              .... done
The first mode is                       ....    9
The number of degrees of freedom        ....   21

    -----------------------------------------------------------------
                    Redundant Internal Coordinates


    -----------------------------------------------------------------
         Definition                    Initial Value    Approx d2E/dq
    -----------------------------------------------------------------
      1. B(C   1,C   0)                  1.5112         0.400329   
      2. B(O   2,C   1)                  1.4109         0.518227   
      3. B(H   3,C   0)                  1.0819         0.370957   
      4. B(H   4,C   0)                  1.0835         0.368784   
      5. B(H   5,C   0)                  1.0792         0.374695   
      6. B(H   6,C   1)                  1.0915         0.358170   
      7. B(H   7,C   1)                  1.0864         0.364937   
      8. B(H   8,O   2)                  0.9357         0.568490   
      9. A(C   1,C   0,H   5)          112.5155         0.330191   
     10. A(H   3,C   0,H   4)          107.9622         0.293300   
     11. A(H   3,C   0,H   5)          107.2235         0.294037   
     12. A(C   1,C   0,H   4)          112.3237         0.329325   
     13. A(C   1,C   0,H   3)          112.2073         0.329644   
     14. A(H   4,C   0,H   5)          104.1299         0.293764   
     15. A(H   6,C   1,H   7)          105.6154         0.291204   
     16. A(C   0,C   1,O   2)          112.7462         0.386639   
     17. A(O   2,C   1,H   7)          106.1577         0.341088   
     18. A(C   0,C   1,H   7)          110.9960         0.328755   
     19. A(O   2,C   1,H   6)          110.5488         0.340022   
     20. A(C   0,C   1,H   6)          110.4624         0.327741   
     21. A(C   1,O   2,H   8)          108.8648         0.364443   
     22. D(O   2,C   1,C   0,H   4)    -70.3483         0.012715   
     23. D(H   6,C   1,C   0,H   3)    175.7441         0.012715   
     24. D(O   2,C   1,C   0,H   3)     51.5028         0.012715   
     25. D(H   6,C   1,C   0,H   4)     53.8930         0.012715   
     26. D(H   6,C   1,C   0,H   5)    -63.2289         0.012715   
     27. D(O   2,C   1,C   0,H   5)    172.5298         0.012715   
     28. D(H   8,O   2,C   1,C   0)     50.4138         0.021286   
     29. D(H   8,O   2,C   1,H   7)    172.1471         0.021286   
     30. D(H   8,O   2,C   1,H   6)    -73.7800         0.021286   
    -----------------------------------------------------------------

Number of atoms                         .... 9
Number of degrees of freedom            .... 30


         *************************************************************
         *                GEOMETRY OPTIMIZATION CYCLE   1            *
         *************************************************************
------------------------------------------------------------------------------
                         ORCA GEOMETRY RELAXATION STEP
------------------------------------------------------------------------------

Reading the OPT-File                    .... done

---------------------------------------------
FINAL SINGLE POINT ENERGY        -1.448364252698
---------------------------------------------

Getting information on internals        .... done
Copying old internal coords+grads       .... done
Making the new internal coordinates     .... (2022 redundants) done
Validating the new internal coordinates .... (2022 redundants) done
Calculating the B-matrix                .... done
Calculating the G,G- and P matrices     .... done
Transforming gradient to internals      .... done
Projecting the internal gradient        .... done
Number of atoms                         ....   9
Number of internal coordinates          ....  30
Current Energy                          ....    -1.448364253 Eh
Current gradient norm                   ....     0.000232152 Eh/bohr
Maximum allowed component of the step   ....  0.300
Current trust radius                    ....  0.300
Evaluating the initial hessian          ....  (Almloef) done
Projecting the Hessian                  .... done
Forming the augmented Hessian           .... done
Diagonalizing the augmented Hessian     .... done
Last element of RFO vector              ....  0.999992647
Lowest eigenvalues of augmented Hessian:
 -0.000000380  0.012714846  0.021286315  0.100081123  0.128402190
Length of the computed step             ....  0.003834858
The final length of the internal step   ....  0.003834858
Converting the step to Cartesian space:
 Initial RMS(Int)=    0.0007001460
Transforming coordinates:
 Iter   0:  RMS(Cart)=    0.0007905538 RMS(Int)=    0.0007001499
done
Storing new coordinates                 .... done

       Everything but the energy has converged. However, the energy
       appears to be close enough to convergence to make sure that the
       final evaluation at the new geometry represents the equilibrium energy.
       Convergence will therefore be signaled now


			-----------------------
			     GOAT ITER   1       
			-----------------------

	Minimum found after 1 optimization iterations! E = -1.448364

	No previous minima found yet, adding first to ethanol_goat.goat.0.0.ensembleen.tmp.

	Number of GOAT steps per global cycle: 27

	Current MaxEn         : 27.00 kcal/mol
	Current Temperature   : 2903.97 K
	Current UphillGradComp: 1.00

                                .--------------------.
          ----------------------|Geometry convergence|-------------------------
          Item                value                   Tolerance       Converged
          ---------------------------------------------------------------------
          RMS gradient        0.0000356076            0.0001000000      YES
          MAX gradient        0.0000808344            0.0003000000      YES
          RMS step            0.0007001460            0.0020000000      YES
          MAX step            0.0018534915            0.0040000000      YES
          ........................................................
          Max(Bonds)      0.0001      Max(Angles)    0.02
          Max(Dihed)        0.11      Max(Improp)    0.00
          ---------------------------------------------------------------------

Geometry step timings:
Preparation and reading OPT file:      0.001 s ( 1.572 %)
Internal coordinates            :      0.000 s ( 0.014 %)
B/P matrices and projection     :      0.000 s ( 0.195 %)
Hessian update/contruction      :      0.020 s (38.240 %)
Making the step                 :      0.000 s ( 0.270 %)
Converting the step to Cartesian:      0.000 s ( 0.057 %)
Storing new data                :      0.000 s ( 0.590 %)
Checking convergence            :      0.000 s ( 0.002 %)
GOAT stuff                      :      0.029 s (56.396 %)
Final printing                  :      0.001 s ( 2.659 %)
Total time                      :      0.051 s

Time for energy+gradient        :      0.685 s
Time for complete geometry iter :      0.996 s

         *************************************************************
         *                GEOMETRY OPTIMIZATION CYCLE   2            *
         *************************************************************
------------------------------------------------------------------------------
                         ORCA GEOMETRY RELAXATION STEP
------------------------------------------------------------------------------

Reading the OPT-File                    .... done

---------------------------------------------
FINAL SINGLE POINT ENERGY        -1.448388364955
---------------------------------------------

Getting information on internals        .... done
Copying old internal coords+grads       .... done
Making the new internal coordinates     .... (2022 redundants) done
Validating the new internal coordinates .... (2022 redundants) done
Calculating the B-matrix                .... done
Calculating the G,G- and P matrices     .... done
Transforming gradient to internals      .... done
Projecting the internal gradient        .... done
Number of atoms                         ....   9
Number of internal coordinates          ....  30
Current Energy                          ....    -1.448388365 Eh
Current gradient norm                   ....     0.000198523 Eh/bohr
Maximum allowed component of the step   ....  0.300
Current trust radius                    ....  0.300
Updating the Hessian (BFGS)             .... done
Making initial random step              .... (random normal) done
Converting the step to Cartesian space:
 Initial RMS(Int)=    0.0683814094
Transforming coordinates:
 Iter   0:  RMS(Cart)=    0.0701813248 RMS(Int)=    0.0565982571
 Iter   5:  RMS(Cart)=    0.0000004463 RMS(Int)=    0.0000004643
Imposing constraints:
 Iter   0:  RMS(Cart)=    0.0000000040 RMS(Int)=    0.0000000000
CONVERGED
done
Storing new coordinates                 .... done
Current trust radius                    ....     0.3000
Energy difference                       ....     0.0151 kcal/mol
Maximum difference                      ....     0.2700 kcal/mol
New trust radius                        ....     0.4500

                                .--------------------.
          ----------------------|Geometry convergence|-------------------------
          Item                value                   Tolerance       Converged
          ---------------------------------------------------------------------
          Energy change      -0.0000241123            0.0000050000      NO
          RMS gradient        0.0000274603            0.0001000000      YES
          MAX gradient        0.0000641346            0.0003000000      YES
          RMS step            0.0683814094            0.0020000000      NO
          MAX step            0.1439022717            0.0040000000      NO
          ........................................................
          Max(Bonds)      0.0000      Max(Angles)    8.24
          Max(Dihed)        7.00      Max(Improp)    0.00
          ---------------------------------------------------------------------

Geometry step timings:
Preparation and reading OPT file:      0.001 s ( 9.159 %)
Internal coordinates            :      0.000 s ( 0.090 %)
B/P matrices and projection     :      0.000 s ( 1.277 %)
Hessian update/contruction      :      0.003 s (43.744 %)
Making the step                 :      0.002 s (22.265 %)
Converting the step to Cartesian:      0.000 s ( 4.812 %)
Storing new data                :      0.000 s ( 4.438 %)
Checking convergence            :      0.000 s ( 0.039 %)
GOAT stuff                      :      0.000 s ( 0.000 %)
Final printing                  :      0.001 s (14.164 %)
Total time                      :      0.008 s

Time for energy+gradient        :      0.650 s
Time for complete geometry iter :      0.675 s

         *************************************************************
         *                GEOMETRY OPTIMIZATION CYCLE   3            *
         *************************************************************
------------------------------------------------------------------------------
                         ORCA GEOMETRY RELAXATION STEP
------------------------------------------------------------------------------

Reading the OPT-File                    .... done

---------------------------------------------
FINAL SINGLE POINT ENERGY        -1.443672315919
---------------------------------------------

Getting information on internals        .... done
Copying old internal coords+grads       .... done
Making the new internal coordinates     .... (2022 redundants) done
Validating the new internal coordinates .... (2022 redundants) done
Calculating the B-matrix                .... done
Calculating the G,G- and P matrices     .... done
Transforming gradient to internals      .... done
Projecting the internal gradient        .... done
Number of atoms                         ....   9
Number of internal coordinates          ....  30
Current Energy                          ....    -1.443672316 Eh
Current gradient norm                   ....     0.045555913 Eh/bohr
Maximum allowed component of the step   ....  0.300
Current trust radius                    ....  0.450
Updating the Hessian (BFGS)             .... done
Making uphill step                      .... done
Uphill step size                        .... 0.449317
Converting the step to Cartesian space:
 Initial RMS(Int)=    0.0820336895
Transforming coordinates:
 Iter   0:  RMS(Cart)=    0.0884563426 RMS(Int)=    1.1306056584
 Iter   5:  RMS(Cart)=    0.0000124831 RMS(Int)=    0.0000135095
Imposing constraints:
 Iter   0:  RMS(Cart)=    0.0000000026 RMS(Int)=    0.0000000000
CONVERGED
done
Storing new coordinates                 .... done
Current trust radius                    ....     0.4500
Energy difference                       ....     2.9594 kcal/mol
Maximum difference                      ....     0.2700 kcal/mol
New trust radius                        ....     0.3000

                                .--------------------.
          ----------------------|Geometry convergence|-------------------------
          Item                value                   Tolerance       Converged
          ---------------------------------------------------------------------
          Energy change       0.0047160490            0.0000050000      NO
          RMS gradient        0.0068610690            0.0001000000      NO
          MAX gradient        0.0152324822            0.0003000000      NO
          RMS step            0.0820336895            0.0020000000      NO
          MAX step            0.2486010905            0.0040000000      NO
          ........................................................
          Max(Bonds)      0.0000      Max(Angles)    6.04
          Max(Dihed)       14.24      Max(Improp)    0.00
          ---------------------------------------------------------------------

Geometry step timings:
Preparation and reading OPT file:      0.001 s ( 9.624 %)
Internal coordinates            :      0.000 s ( 0.154 %)
B/P matrices and projection     :      0.000 s ( 1.804 %)
Hessian update/contruction      :      0.002 s (36.073 %)
Making the step                 :      0.001 s (22.239 %)
Converting the step to Cartesian:      0.000 s ( 5.891 %)
Storing new data                :      0.000 s ( 5.490 %)
Checking convergence            :      0.000 s ( 0.062 %)
GOAT stuff                      :      0.000 s ( 0.000 %)
Final printing                  :      0.001 s (18.646 %)
Total time                      :      0.006 s

Time for energy+gradient        :      0.694 s
Time for complete geometry iter :      0.717 s

         *************************************************************
         *                GEOMETRY OPTIMIZATION CYCLE   4            *
         *************************************************************
------------------------------------------------------------------------------
                         ORCA GEOMETRY RELAXATION STEP
------------------------------------------------------------------------------

Reading the OPT-File                    .... done

---------------------------------------------
FINAL SINGLE POINT ENERGY        -1.438448367426
---------------------------------------------

Getting information on internals        .... done
Copying old internal coords+grads       .... done
Making the new internal coordinates     .... (2022 redundants) done
Validating the new internal coordinates .... (2022 redundants) done
Calculating the B-matrix                .... done
Calculating the G,G- and P matrices     .... done
Transforming gradient to internals      .... done
Projecting the internal gradient        .... done
Number of atoms                         ....   9
Number of internal coordinates          ....  30
Current Energy                          ....    -1.438448367 Eh
Current gradient norm                   ....     0.062382299 Eh/bohr
Maximum allowed component of the step   ....  0.300
Current trust radius                    ....  0.300
Updating the Hessian (BFGS)             .... done
Making uphill step                      .... done
Uphill step size                        .... 0.299591
Converting the step to Cartesian space:
 Initial RMS(Int)=    0.0546975557
Transforming coordinates:
 Iter   0:  RMS(Cart)=    0.0577016868 RMS(Int)=    1.1244256190
 Iter   5:  RMS(Cart)=    0.0000014108 RMS(Int)=    0.0000016968
Imposing constraints:
 Iter   0:  RMS(Cart)=    0.0000000032 RMS(Int)=    0.0000000000
CONVERGED
done
Storing new coordinates                 .... done
Current trust radius                    ....     0.3000
Energy difference                       ....     3.2781 kcal/mol
Maximum difference                      ....     0.2700 kcal/mol
New trust radius                        ....     0.3000

                                .--------------------.
          ----------------------|Geometry convergence|-------------------------
          Item                value                   Tolerance       Converged
          ---------------------------------------------------------------------
          Energy change       0.0052239485            0.0000050000      NO
          RMS gradient        0.0090496004            0.0001000000      NO
          MAX gradient        0.0203084965            0.0003000000      NO
          RMS step            0.0546975557            0.0020000000      NO
          MAX step            0.1536095839            0.0040000000      NO
          ........................................................
          Max(Bonds)      0.0000      Max(Angles)    3.68
          Max(Dihed)        8.80      Max(Improp)    0.00
          ---------------------------------------------------------------------

Geometry step timings:
Preparation and reading OPT file:      0.001 s (12.217 %)
Internal coordinates            :      0.000 s ( 0.159 %)
B/P matrices and projection     :      0.000 s ( 1.760 %)
Hessian update/contruction      :      0.003 s (38.959 %)
Making the step                 :      0.001 s (21.491 %)
Converting the step to Cartesian:      0.000 s ( 5.986 %)
Storing new data                :      0.000 s ( 5.380 %)
Checking convergence            :      0.000 s ( 0.058 %)
GOAT stuff                      :      0.000 s ( 0.000 %)
Final printing                  :      0.001 s (13.962 %)
Total time                      :      0.007 s

Time for energy+gradient        :      0.702 s
Time for complete geometry iter :      0.726 s

         *************************************************************
         *                GEOMETRY OPTIMIZATION CYCLE   5            *
         *************************************************************
------------------------------------------------------------------------------
                         ORCA GEOMETRY RELAXATION STEP
------------------------------------------------------------------------------

Reading the OPT-File                    .... done

---------------------------------------------
FINAL SINGLE POINT ENERGY        -1.438949958444
---------------------------------------------

Getting information on internals        .... done
Copying old internal coords+grads       .... done
Making the new internal coordinates     .... (2022 redundants) done
Validating the new internal coordinates .... (2022 redundants) done
Calculating the B-matrix                .... done
Calculating the G,G- and P matrices     .... done
Transforming gradient to internals      .... done
Projecting the internal gradient        .... done
Number of atoms                         ....   9
Number of internal coordinates          ....  30
Current Energy                          ....    -1.438949958 Eh
Current gradient norm                   ....     0.055842617 Eh/bohr
Maximum allowed component of the step   ....  0.300
Current trust radius                    ....  0.300
Updating the Hessian (BFGS)             .... done
Making uphill step                      .... done
Uphill step size                        .... 0.299769
Converting the step to Cartesian space:
 Initial RMS(Int)=    0.0547300716
Transforming coordinates:
 Iter   0:  RMS(Cart)=    0.0588947452 RMS(Int)=    0.0535343394
 Iter   5:  RMS(Cart)=    0.0000014543 RMS(Int)=    0.0000017414
Imposing constraints:
 Iter   0:  RMS(Cart)=    0.0000000039 RMS(Int)=    0.0000000001
CONVERGED
done
Storing new coordinates                 .... done
Current trust radius                    ....     0.3000
Energy difference                       ....     0.3148 kcal/mol
Maximum difference                      ....     0.2700 kcal/mol
New trust radius                        ....     0.3000

                                .--------------------.
          ----------------------|Geometry convergence|-------------------------
          Item                value                   Tolerance       Converged
          ---------------------------------------------------------------------
          Energy change      -0.0005015910            0.0000050000      NO
          RMS gradient        0.0079019662            0.0001000000      NO
          MAX gradient        0.0203983705            0.0003000000      NO
          RMS step            0.0547300716            0.0020000000      NO
          MAX step            0.1557976190            0.0040000000      NO
          ........................................................
          Max(Bonds)      0.0000      Max(Angles)    3.42
          Max(Dihed)        8.93      Max(Improp)    0.00
          ---------------------------------------------------------------------

Geometry step timings:
Preparation and reading OPT file:      0.001 s ( 9.844 %)
Internal coordinates            :      0.000 s ( 0.134 %)
B/P matrices and projection     :      0.000 s ( 1.347 %)
Hessian update/contruction      :      0.004 s (41.370 %)
Making the step                 :      0.002 s (22.238 %)
Converting the step to Cartesian:      0.001 s ( 6.514 %)
Storing new data                :      0.000 s ( 3.898 %)
Checking convergence            :      0.000 s ( 0.033 %)
GOAT stuff                      :      0.000 s ( 0.000 %)
Final printing                  :      0.001 s (14.610 %)
Total time                      :      0.009 s

Time for energy+gradient        :      1.016 s
Time for complete geometry iter :      1.060 s

         *************************************************************
         *                GEOMETRY OPTIMIZATION CYCLE   6            *
         *************************************************************
------------------------------------------------------------------------------
                         ORCA GEOMETRY RELAXATION STEP
------------------------------------------------------------------------------

Reading the OPT-File                    .... done

---------------------------------------------
FINAL SINGLE POINT ENERGY        -1.441660344344
---------------------------------------------

Getting information on internals        .... done
Copying old internal coords+grads       .... done
Making the new internal coordinates     .... (2022 redundants) done
Validating the new internal coordinates .... (2022 redundants) done
Calculating the B-matrix                .... done
Calculating the G,G- and P matrices     .... done
Transforming gradient to internals      .... done
Projecting the internal gradient        .... done
Number of atoms                         ....   9
Number of internal coordinates          ....  30
Current Energy                          ....    -1.441660344 Eh
Current gradient norm                   ....     0.040002066 Eh/bohr
Maximum allowed component of the step   ....  0.300
Current trust radius                    ....  0.300
Updating the Hessian (BFGS)             .... done
Making uphill step                      .... done
Uphill step size                        .... 0.299588
Converting the step to Cartesian space:
 Initial RMS(Int)=    0.0546970677
Transforming coordinates:
 Iter   0:  RMS(Cart)=    0.0560891570 RMS(Int)=    0.0538121004
 Iter   5:  RMS(Cart)=    0.0000012294 RMS(Int)=    0.0000014517
Imposing constraints:
 Iter   0:  RMS(Cart)=    0.0000000030 RMS(Int)=    0.0000000001
CONVERGED
done
Storing new coordinates                 .... done
Current trust radius                    ....     0.3000
Energy difference                       ....     1.7008 kcal/mol
Maximum difference                      ....     0.2700 kcal/mol
New trust radius                        ....     0.3000

                                .--------------------.
          ----------------------|Geometry convergence|-------------------------
          Item                value                   Tolerance       Converged
          ---------------------------------------------------------------------
          Energy change      -0.0027103859            0.0000050000      NO
          RMS gradient        0.0053732118            0.0001000000      NO
          MAX gradient        0.0149357822            0.0003000000      NO
          RMS step            0.0546970677            0.0020000000      NO
          MAX step            0.1697613132            0.0040000000      NO
          ........................................................
          Max(Bonds)      0.0000      Max(Angles)    3.66
          Max(Dihed)        9.73      Max(Improp)    0.00
          ---------------------------------------------------------------------

Geometry step timings:
Preparation and reading OPT file:      0.001 s (12.284 %)
Internal coordinates            :      0.000 s ( 0.112 %)
B/P matrices and projection     :      0.000 s ( 1.201 %)
Hessian update/contruction      :      0.003 s (36.492 %)
Making the step                 :      0.001 s (15.675 %)
Converting the step to Cartesian:      0.001 s (13.148 %)
Storing new data                :      0.000 s ( 4.402 %)
Checking convergence            :      0.000 s ( 0.101 %)
GOAT stuff                      :      0.000 s ( 0.000 %)
Final printing                  :      0.001 s (16.562 %)
Total time                      :      0.009 s

Time for energy+gradient        :      0.766 s
Time for complete geometry iter :      0.826 s

         *************************************************************
         *                GEOMETRY OPTIMIZATION CYCLE   7            *
         *************************************************************
------------------------------------------------------------------------------
                         ORCA GEOMETRY RELAXATION STEP
------------------------------------------------------------------------------

Reading the OPT-File                    .... done

---------------------------------------------
FINAL SINGLE POINT ENERGY        -1.443523576939
---------------------------------------------

Getting information on internals        .... done
Copying old internal coords+grads       .... done
Making the new internal coordinates     .... (2022 redundants) done
Validating the new internal coordinates .... (2022 redundants) done
Calculating the B-matrix                .... done
Calculating the G,G- and P matrices     .... done
Transforming gradient to internals      .... done
Projecting the internal gradient        .... done
Number of atoms                         ....   9
Number of internal coordinates          ....  30
Current Energy                          ....    -1.443523577 Eh
Current gradient norm                   ....     0.025910751 Eh/bohr
Maximum allowed component of the step   ....  0.300
Current trust radius                    ....  0.300
Updating the Hessian (BFGS)             .... done
Making uphill step                      .... done
Uphill step size                        .... 0.299473
Converting the step to Cartesian space:
 Initial RMS(Int)=    0.0546760610
Transforming coordinates:
 Iter   0:  RMS(Cart)=    0.0493690906 RMS(Int)=    0.0543608030
 Iter   5:  RMS(Cart)=    0.0000008451 RMS(Int)=    0.0000009866
Imposing constraints:
 Iter   0:  RMS(Cart)=    0.0000000014 RMS(Int)=    0.0000000000
CONVERGED
done
Storing new coordinates                 .... done
Current trust radius                    ....     0.3000
Energy difference                       ....     1.1692 kcal/mol
Maximum difference                      ....     0.2700 kcal/mol
New trust radius                        ....     0.3000

                                .--------------------.
          ----------------------|Geometry convergence|-------------------------
          Item                value                   Tolerance       Converged
          ---------------------------------------------------------------------
          Energy change      -0.0018632326            0.0000050000      NO
          RMS gradient        0.0035402092            0.0001000000      NO
          MAX gradient        0.0092600652            0.0003000000      NO
          RMS step            0.0546760610            0.0020000000      NO
          MAX step            0.1678223218            0.0040000000      NO
          ........................................................
          Max(Bonds)      0.0000      Max(Angles)    3.65
          Max(Dihed)        9.62      Max(Improp)    0.00
          ---------------------------------------------------------------------

Geometry step timings:
Preparation and reading OPT file:      0.001 s ( 7.279 %)
Internal coordinates            :      0.000 s ( 0.142 %)
B/P matrices and projection     :      0.000 s ( 1.545 %)
Hessian update/contruction      :      0.003 s (38.669 %)
Making the step                 :      0.002 s (18.757 %)
Converting the step to Cartesian:      0.001 s (12.611 %)
Storing new data                :      0.000 s ( 3.504 %)
Checking convergence            :      0.000 s ( 0.047 %)
GOAT stuff                      :      0.000 s ( 0.000 %)
Final printing                  :      0.001 s (17.435 %)
Total time                      :      0.008 s

Time for energy+gradient        :      0.736 s
Time for complete geometry iter :      0.787 s

         *************************************************************
         *                GEOMETRY OPTIMIZATION CYCLE   8            *
         *************************************************************
------------------------------------------------------------------------------
                         ORCA GEOMETRY RELAXATION STEP
------------------------------------------------------------------------------

Reading the OPT-File                    .... done

---------------------------------------------
FINAL SINGLE POINT ENERGY        -1.444741526288
---------------------------------------------

Getting information on internals        .... done
Copying old internal coords+grads       .... done
Making the new internal coordinates     .... (2022 redundants) done
Validating the new internal coordinates .... (2022 redundants) done
Calculating the B-matrix                .... done
Calculating the G,G- and P matrices     .... done
Transforming gradient to internals      .... done
Projecting the internal gradient        .... done
Number of atoms                         ....   9
Number of internal coordinates          ....  30
Current Energy                          ....    -1.444741526 Eh
Current gradient norm                   ....     0.018041538 Eh/bohr
Maximum allowed component of the step   ....  0.300
Current trust radius                    ....  0.300
Updating the Hessian (BFGS)             .... done
Making uphill step                      .... done
Uphill step size                        .... 0.299600
Converting the step to Cartesian space:
 Initial RMS(Int)=    0.0546992284
Transforming coordinates:
 Iter   0:  RMS(Cart)=    0.0438637048 RMS(Int)=    1.1320475038
 Iter   5:  RMS(Cart)=    0.0000006559 RMS(Int)=    0.0000007371
Imposing constraints:
 Iter   0:  RMS(Cart)=    0.0000000095 RMS(Int)=    0.0000000001
CONVERGED
done
Storing new coordinates                 .... done
Current trust radius                    ....     0.3000
Energy difference                       ....     0.7643 kcal/mol
Maximum difference                      ....     0.2700 kcal/mol
New trust radius                        ....     0.3000

                                .--------------------.
          ----------------------|Geometry convergence|-------------------------
          Item                value                   Tolerance       Converged
          ---------------------------------------------------------------------
          Energy change      -0.0012179493            0.0000050000      NO
          RMS gradient        0.0027530058            0.0001000000      NO
          MAX gradient        0.0058160749            0.0003000000      NO
          RMS step            0.0546992284            0.0020000000      NO
          MAX step            0.1578262435            0.0040000000      NO
          ........................................................
          Max(Bonds)      0.0000      Max(Angles)    2.75
          Max(Dihed)        9.04      Max(Improp)    0.00
          ---------------------------------------------------------------------

Geometry step timings:
Preparation and reading OPT file:      0.001 s (11.694 %)
Internal coordinates            :      0.000 s ( 0.170 %)
B/P matrices and projection     :      0.000 s ( 1.761 %)
Hessian update/contruction      :      0.003 s (40.024 %)
Making the step                 :      0.002 s (23.097 %)
Converting the step to Cartesian:      0.001 s ( 6.825 %)
Storing new data                :      0.000 s ( 3.619 %)
Checking convergence            :      0.000 s ( 0.073 %)
GOAT stuff                      :      0.000 s ( 0.000 %)
Final printing                  :      0.001 s (12.714 %)
Total time                      :      0.008 s

Time for energy+gradient        :      0.704 s
Time for complete geometry iter :      0.767 s

         *************************************************************
         *                GEOMETRY OPTIMIZATION CYCLE   9            *
         *************************************************************
------------------------------------------------------------------------------
                         ORCA GEOMETRY RELAXATION STEP
------------------------------------------------------------------------------

Reading the OPT-File                    .... done

---------------------------------------------
FINAL SINGLE POINT ENERGY        -1.445192089041
---------------------------------------------

Getting information on internals        .... done
Copying old internal coords+grads       .... done
Making the new internal coordinates     .... (2022 redundants) done
Validating the new internal coordinates .... (2022 redundants) done
Calculating the B-matrix                .... done
Calculating the G,G- and P matrices     .... done
Transforming gradient to internals      .... done
Projecting the internal gradient        .... done
Number of atoms                         ....   9
Number of internal coordinates          ....  30
Current Energy                          ....    -1.445192089 Eh
Current gradient norm                   ....     0.014384001 Eh/bohr
Maximum allowed component of the step   ....  0.300
Current trust radius                    ....  0.300
Updating the Hessian (BFGS)             .... done
Making uphill step                      .... done
Uphill step size                        .... 0.299704
Converting the step to Cartesian space:
 Initial RMS(Int)=    0.0547182821
Transforming coordinates:
 Iter   0:  RMS(Cart)=    0.0416978359 RMS(Int)=    0.0547680894
 Iter   5:  RMS(Cart)=    0.0000006674 RMS(Int)=    0.0000007321
Imposing constraints:
 Iter   0:  RMS(Cart)=    0.0000000102 RMS(Int)=    0.0000000001
CONVERGED
done
Storing new coordinates                 .... done
Current trust radius                    ....     0.3000
Energy difference                       ....     0.2827 kcal/mol
Maximum difference                      ....     0.2700 kcal/mol
New trust radius                        ....     0.3000

                                .--------------------.
          ----------------------|Geometry convergence|-------------------------
          Item                value                   Tolerance       Converged
          ---------------------------------------------------------------------
          Energy change      -0.0004505628            0.0000050000      NO
          RMS gradient        0.0022248954            0.0001000000      NO
          MAX gradient        0.0046647276            0.0003000000      NO
          RMS step            0.0547182821            0.0020000000      NO
          MAX step            0.1509901446            0.0040000000      NO
          ........................................................
          Max(Bonds)      0.0000      Max(Angles)    2.93
          Max(Dihed)        8.65      Max(Improp)    0.00
          ---------------------------------------------------------------------

Geometry step timings:
Preparation and reading OPT file:      0.001 s ( 3.145 %)
Internal coordinates            :      0.000 s ( 0.039 %)
B/P matrices and projection     :      0.000 s ( 0.462 %)
Hessian update/contruction      :      0.003 s (11.892 %)
Making the step                 :      0.002 s ( 6.479 %)
Converting the step to Cartesian:      0.001 s ( 2.363 %)
Storing new data                :      0.000 s ( 1.073 %)
Checking convergence            :      0.000 s ( 0.016 %)
GOAT stuff                      :      0.000 s ( 0.000 %)
Final printing                  :      0.019 s (74.527 %)
Total time                      :      0.025 s

Time for energy+gradient        :      0.700 s
Time for complete geometry iter :      0.790 s

         *************************************************************
         *                GEOMETRY OPTIMIZATION CYCLE  10            *
         *************************************************************
------------------------------------------------------------------------------
                         ORCA GEOMETRY RELAXATION STEP
------------------------------------------------------------------------------

Reading the OPT-File                    .... done

---------------------------------------------
FINAL SINGLE POINT ENERGY        -1.445309986763
---------------------------------------------

Getting information on internals        .... done
Copying old internal coords+grads       .... done
Making the new internal coordinates     .... (2022 redundants) done
Validating the new internal coordinates .... (2022 redundants) done
Calculating the B-matrix                .... done
Calculating the G,G- and P matrices     .... done
Transforming gradient to internals      .... done
Projecting the internal gradient        .... done
Number of atoms                         ....   9
Number of internal coordinates          ....  30
Current Energy                          ....    -1.445309987 Eh
Current gradient norm                   ....     0.012566996 Eh/bohr
Maximum allowed component of the step   ....  0.300
Current trust radius                    ....  0.300
Updating the Hessian (BFGS)             .... done
Making uphill step                      .... done
Uphill step size                        .... 0.299703
Converting the step to Cartesian space:
 Initial RMS(Int)=    0.0547179956
Transforming coordinates:
 Iter   0:  RMS(Cart)=    0.0423875401 RMS(Int)=    0.0546575041
 Iter   5:  RMS(Cart)=    0.0000009258 RMS(Int)=    0.0000010290
Imposing constraints:
 Iter   0:  RMS(Cart)=    0.0000000010 RMS(Int)=    0.0000000000
CONVERGED
done
Storing new coordinates                 .... done
Current trust radius                    ....     0.3000
Energy difference                       ....     0.0740 kcal/mol
Maximum difference                      ....     0.2700 kcal/mol
New trust radius                        ....     0.4500

                                .--------------------.
          ----------------------|Geometry convergence|-------------------------
          Item                value                   Tolerance       Converged
          ---------------------------------------------------------------------
          Energy change      -0.0001178977            0.0000050000      NO
          RMS gradient        0.0018300735            0.0001000000      NO
          MAX gradient        0.0054989006            0.0003000000      NO
          RMS step            0.0547179956            0.0020000000      NO
          MAX step            0.1526901128            0.0040000000      NO
          ........................................................
          Max(Bonds)      0.0000      Max(Angles)    2.83
          Max(Dihed)        8.75      Max(Improp)    0.00
          ---------------------------------------------------------------------

Geometry step timings:
Preparation and reading OPT file:      0.001 s (12.169 %)
Internal coordinates            :      0.000 s ( 0.170 %)
B/P matrices and projection     :      0.000 s ( 1.757 %)
Hessian update/contruction      :      0.003 s (40.598 %)
Making the step                 :      0.001 s (15.932 %)
Converting the step to Cartesian:      0.000 s ( 6.360 %)
Storing new data                :      0.001 s ( 6.832 %)
Checking convergence            :      0.000 s ( 0.039 %)
GOAT stuff                      :      0.000 s ( 0.000 %)
Final printing                  :      0.001 s (16.116 %)
Total time                      :      0.008 s

Time for energy+gradient        :      0.686 s
Time for complete geometry iter :      0.754 s

         *************************************************************
         *                GEOMETRY OPTIMIZATION CYCLE  11            *
         *************************************************************
------------------------------------------------------------------------------
                         ORCA GEOMETRY RELAXATION STEP
------------------------------------------------------------------------------

Reading the OPT-File                    .... done

---------------------------------------------
FINAL SINGLE POINT ENERGY        -1.445403912414
---------------------------------------------

Getting information on internals        .... done
Copying old internal coords+grads       .... done
Making the new internal coordinates     .... (2022 redundants) done
Validating the new internal coordinates .... (2022 redundants) done
Calculating the B-matrix                .... done
Calculating the G,G- and P matrices     .... done
Transforming gradient to internals      .... done
Projecting the internal gradient        .... done
Number of atoms                         ....   9
Number of internal coordinates          ....  30
Current Energy                          ....    -1.445403912 Eh
Current gradient norm                   ....     0.012008916 Eh/bohr
Maximum allowed component of the step   ....  0.300
Current trust radius                    ....  0.450
Updating the Hessian (BFGS)             .... done
Making uphill step                      .... done
Uphill step size                        .... 0.449776
Converting the step to Cartesian space:
 Initial RMS(Int)=    0.0821174154
Transforming coordinates:
 Iter   0:  RMS(Cart)=    0.0638843241 RMS(Int)=    0.0813790518
 Iter   5:  RMS(Cart)=    0.0000167459 RMS(Int)=    0.0000202616
Imposing constraints:
 Iter   0:  RMS(Cart)=    0.0000000083 RMS(Int)=    0.0000000002
CONVERGED
done
Storing new coordinates                 .... done
Current trust radius                    ....     0.4500
Energy difference                       ....     0.0589 kcal/mol
Maximum difference                      ....     0.2700 kcal/mol
New trust radius                        ....     0.6750

                                .--------------------.
          ----------------------|Geometry convergence|-------------------------
          Item                value                   Tolerance       Converged
          ---------------------------------------------------------------------
          Energy change      -0.0000939257            0.0000050000      NO
          RMS gradient        0.0017016148            0.0001000000      NO
          MAX gradient        0.0063053740            0.0003000000      NO
          RMS step            0.0821174154            0.0020000000      NO
          MAX step            0.2379830219            0.0040000000      NO
          ........................................................
          Max(Bonds)      0.0000      Max(Angles)    2.94
          Max(Dihed)       13.64      Max(Improp)    0.00
          ---------------------------------------------------------------------

Geometry step timings:
Preparation and reading OPT file:      0.000 s ( 2.858 %)
Internal coordinates            :      0.000 s ( 0.080 %)
B/P matrices and projection     :      0.000 s ( 0.822 %)
Hessian update/contruction      :      0.002 s (17.933 %)
Making the step                 :      0.001 s ( 8.618 %)
Converting the step to Cartesian:      0.000 s ( 3.367 %)
Storing new data                :      0.000 s ( 3.163 %)
Checking convergence            :      0.000 s ( 0.022 %)
GOAT stuff                      :      0.000 s ( 0.000 %)
Final printing                  :      0.009 s (63.130 %)
Total time                      :      0.014 s

Time for energy+gradient        :      0.671 s
Time for complete geometry iter :      0.707 s

         *************************************************************
         *                GEOMETRY OPTIMIZATION CYCLE  12            *
         *************************************************************
------------------------------------------------------------------------------
                         ORCA GEOMETRY RELAXATION STEP
------------------------------------------------------------------------------

Reading the OPT-File                    .... done

---------------------------------------------
FINAL SINGLE POINT ENERGY        -1.445077696009
---------------------------------------------

Getting information on internals        .... done
Copying old internal coords+grads       .... done
Making the new internal coordinates     .... (2022 redundants) done
Validating the new internal coordinates .... (2022 redundants) done
Calculating the B-matrix                .... done
Calculating the G,G- and P matrices     .... done
Transforming gradient to internals      .... done
Projecting the internal gradient        .... done
Number of atoms                         ....   9
Number of internal coordinates          ....  30
Current Energy                          ....    -1.445077696 Eh
Current gradient norm                   ....     0.012543282 Eh/bohr
Maximum allowed component of the step   ....  0.300
Current trust radius                    ....  0.675
Updating the Hessian (BFGS)             .... done
Making uphill step                      .... done
Uphill step size                        .... 0.586160
Converting the step to Cartesian space:
 Initial RMS(Int)=    0.1070176531
Transforming coordinates:
 Iter   0:  RMS(Cart)=    0.0803881308 RMS(Int)=    0.1050116406
 Iter   5:  RMS(Cart)=    0.0000941078 RMS(Int)=    0.0001194969
 Iter  10:  RMS(Cart)=    0.0000002385 RMS(Int)=    0.0000002537
Imposing constraints:
 Iter   0:  RMS(Cart)=    0.0000000183 RMS(Int)=    0.0000000006
CONVERGED
done
Storing new coordinates                 .... done
Current trust radius                    ....     0.6750
Energy difference                       ....     0.2047 kcal/mol
Maximum difference                      ....     0.2700 kcal/mol
New trust radius                        ....     0.7000

                                .--------------------.
          ----------------------|Geometry convergence|-------------------------
          Item                value                   Tolerance       Converged
          ---------------------------------------------------------------------
          Energy change       0.0003262164            0.0000050000      NO
          RMS gradient        0.0017929238            0.0001000000      NO
          MAX gradient        0.0067361181            0.0003000000      NO
          RMS step            0.1070176531            0.0020000000      NO
          MAX step            0.3000000000            0.0040000000      NO
          ........................................................
          Max(Bonds)      0.0000      Max(Angles)    3.72
          Max(Dihed)       17.19      Max(Improp)    0.00
          ---------------------------------------------------------------------

Geometry step timings:
Preparation and reading OPT file:      0.000 s ( 6.844 %)
Internal coordinates            :      0.000 s ( 0.148 %)
B/P matrices and projection     :      0.000 s ( 1.704 %)
Hessian update/contruction      :      0.003 s (37.837 %)
Making the step                 :      0.002 s (22.578 %)
Converting the step to Cartesian:      0.000 s ( 6.844 %)
Storing new data                :      0.000 s ( 4.222 %)
Checking convergence            :      0.000 s ( 0.074 %)
GOAT stuff                      :      0.000 s ( 0.000 %)
Final printing                  :      0.001 s (19.733 %)
Total time                      :      0.007 s

Time for energy+gradient        :      0.678 s
Time for complete geometry iter :      0.702 s

         *************************************************************
         *                GEOMETRY OPTIMIZATION CYCLE  13            *
         *************************************************************
------------------------------------------------------------------------------
                         ORCA GEOMETRY RELAXATION STEP
------------------------------------------------------------------------------

Reading the OPT-File                    .... done

---------------------------------------------
FINAL SINGLE POINT ENERGY        -1.444418253820
---------------------------------------------

Getting information on internals        .... done
Copying old internal coords+grads       .... done
Making the new internal coordinates     .... (2022 redundants) done
Validating the new internal coordinates .... (2022 redundants) done
Calculating the B-matrix                .... done
Calculating the G,G- and P matrices     .... done
Transforming gradient to internals      .... done
Projecting the internal gradient        .... done
Number of atoms                         ....   9
Number of internal coordinates          ....  30
Current Energy                          ....    -1.444418254 Eh
Current gradient norm                   ....     0.013303414 Eh/bohr
Maximum allowed component of the step   ....  0.300
Current trust radius                    ....  0.700
Updating the Hessian (BFGS)             .... done
Making uphill step                      .... done
Uphill step size                        .... 0.572158
Converting the step to Cartesian space:
 Initial RMS(Int)=    0.1044612631
Transforming coordinates:
 Iter   0:  RMS(Cart)=    0.0743174565 RMS(Int)=    0.1022445161
 Iter   5:  RMS(Cart)=    0.0000983511 RMS(Int)=    0.0001247383
 Iter  10:  RMS(Cart)=    0.0000002618 RMS(Int)=    0.0000002750
Imposing constraints:
 Iter   0:  RMS(Cart)=    0.0000000196 RMS(Int)=    0.0000000006
CONVERGED
done
Storing new coordinates                 .... done
Current trust radius                    ....     0.7000
Energy difference                       ....     0.4138 kcal/mol
Maximum difference                      ....     0.2700 kcal/mol
New trust radius                        ....     0.4667

                                .--------------------.
          ----------------------|Geometry convergence|-------------------------
          Item                value                   Tolerance       Converged
          ---------------------------------------------------------------------
          Energy change       0.0006594422            0.0000050000      NO
          RMS gradient        0.0021889064            0.0001000000      NO
          MAX gradient        0.0063946319            0.0003000000      NO
          RMS step            0.1044612631            0.0020000000      NO
          MAX step            0.3000000000            0.0040000000      NO
          ........................................................
          Max(Bonds)      0.0000      Max(Angles)    2.70
          Max(Dihed)       17.19      Max(Improp)    0.00
          ---------------------------------------------------------------------

Geometry step timings:
Preparation and reading OPT file:      0.001 s ( 7.467 %)
Internal coordinates            :      0.000 s ( 0.169 %)
B/P matrices and projection     :      0.000 s ( 1.870 %)
Hessian update/contruction      :      0.003 s (36.865 %)
Making the step                 :      0.002 s (21.309 %)
Converting the step to Cartesian:      0.001 s ( 9.129 %)
Storing new data                :      0.000 s ( 3.506 %)
Checking convergence            :      0.000 s ( 0.052 %)
GOAT stuff                      :      0.000 s ( 0.000 %)
Final printing                  :      0.002 s (19.582 %)
Total time                      :      0.008 s

Time for energy+gradient        :      0.737 s
Time for complete geometry iter :      0.771 s

         *************************************************************
         *                GEOMETRY OPTIMIZATION CYCLE  14            *
         *************************************************************
------------------------------------------------------------------------------
                         ORCA GEOMETRY RELAXATION STEP
------------------------------------------------------------------------------

Reading the OPT-File                    .... done

---------------------------------------------
FINAL SINGLE POINT ENERGY        -1.444227458578
---------------------------------------------

Getting information on internals        .... done
Copying old internal coords+grads       .... done
Making the new internal coordinates     .... (2022 redundants) done
Validating the new internal coordinates .... (2022 redundants) done
Calculating the B-matrix                .... done
Calculating the G,G- and P matrices     .... done
Transforming gradient to internals      .... done
Projecting the internal gradient        .... done
Number of atoms                         ....   9
Number of internal coordinates          ....  30
Current Energy                          ....    -1.444227459 Eh
Current gradient norm                   ....     0.014119333 Eh/bohr
Maximum allowed component of the step   ....  0.300
Current trust radius                    ....  0.467
Updating the Hessian (BFGS)             .... done
Making uphill step                      .... done
Uphill step size                        .... 0.466547
Converting the step to Cartesian space:
 Initial RMS(Int)=    0.0851793961
Transforming coordinates:
 Iter   0:  RMS(Cart)=    0.0644759741 RMS(Int)=    1.1040486593
 Iter   5:  RMS(Cart)=    0.0000368181 RMS(Int)=    0.0000454528
 Iter  10:  RMS(Cart)=    0.0000000423 RMS(Int)=    0.0000000433
Imposing constraints:
 Iter   0:  RMS(Cart)=    0.0000000015 RMS(Int)=    0.0000000000
CONVERGED
done
Storing new coordinates                 .... done
Current trust radius                    ....     0.4667
Energy difference                       ....     0.1197 kcal/mol
Maximum difference                      ....     0.2700 kcal/mol
New trust radius                        ....     0.7000

                                .--------------------.
          ----------------------|Geometry convergence|-------------------------
          Item                value                   Tolerance       Converged
          ---------------------------------------------------------------------
          Energy change       0.0001907952            0.0000050000      NO
          RMS gradient        0.0026289615            0.0001000000      NO
          MAX gradient        0.0071433492            0.0003000000      NO
          RMS step            0.0851793961            0.0020000000      NO
          MAX step            0.2697646372            0.0040000000      NO
          ........................................................
          Max(Bonds)      0.0000      Max(Angles)    3.45
          Max(Dihed)       15.46      Max(Improp)    0.00
          ---------------------------------------------------------------------

Geometry step timings:
Preparation and reading OPT file:      0.001 s ( 8.232 %)
Internal coordinates            :      0.000 s ( 0.133 %)
B/P matrices and projection     :      0.000 s ( 1.548 %)
Hessian update/contruction      :      0.004 s (47.819 %)
Making the step                 :      0.001 s (13.929 %)
Converting the step to Cartesian:      0.001 s (10.474 %)
Storing new data                :      0.000 s ( 3.442 %)
Checking convergence            :      0.000 s ( 0.053 %)
GOAT stuff                      :      0.000 s ( 0.000 %)
Final printing                  :      0.001 s (14.356 %)
Total time                      :      0.007 s

Time for energy+gradient        :      0.702 s
Time for complete geometry iter :      0.773 s

         *************************************************************
         *                GEOMETRY OPTIMIZATION CYCLE  15            *
         *************************************************************
------------------------------------------------------------------------------
                         ORCA GEOMETRY RELAXATION STEP
------------------------------------------------------------------------------

Reading the OPT-File                    .... done

---------------------------------------------
FINAL SINGLE POINT ENERGY        -1.443971756505
---------------------------------------------

Getting information on internals        .... done
Copying old internal coords+grads       .... done
Making the new internal coordinates     .... (2022 redundants) done
Validating the new internal coordinates .... (2022 redundants) done
Calculating the B-matrix                .... done
Calculating the G,G- and P matrices     .... done
Transforming gradient to internals      .... done
Projecting the internal gradient        .... done
Number of atoms                         ....   9
Number of internal coordinates          ....  30
Current Energy                          ....    -1.443971757 Eh
Current gradient norm                   ....     0.012505110 Eh/bohr
Maximum allowed component of the step   ....  0.300
Current trust radius                    ....  0.700
Updating the Hessian (BFGS)             .... done
Making uphill step                      .... done
Uphill step size                        .... 0.542691
Converting the step to Cartesian space:
 Initial RMS(Int)=    0.0990812930
Transforming coordinates:
 Iter   0:  RMS(Cart)=    0.0736116488 RMS(Int)=    0.0963872815
 Iter   5:  RMS(Cart)=    0.0000970442 RMS(Int)=    0.0001179610
 Iter  10:  RMS(Cart)=    0.0000002433 RMS(Int)=    0.0000002543
Imposing constraints:
 Iter   0:  RMS(Cart)=    0.0000000173 RMS(Int)=    0.0000000006
CONVERGED
done
Storing new coordinates                 .... done
Current trust radius                    ....     0.7000
Energy difference                       ....     0.1605 kcal/mol
Maximum difference                      ....     0.2700 kcal/mol
New trust radius                        ....     0.7000

                                .--------------------.
          ----------------------|Geometry convergence|-------------------------
          Item                value                   Tolerance       Converged
          ---------------------------------------------------------------------
          Energy change       0.0002557021            0.0000050000      NO
          RMS gradient        0.0025003074            0.0001000000      NO
          MAX gradient        0.0078121648            0.0003000000      NO
          RMS step            0.0990812930            0.0020000000      NO
          MAX step            0.3000000000            0.0040000000      NO
          ........................................................
          Max(Bonds)      0.0000      Max(Angles)    2.29
          Max(Dihed)       17.19      Max(Improp)    0.00
          ---------------------------------------------------------------------

Geometry step timings:
Preparation and reading OPT file:      0.001 s ( 9.178 %)
Internal coordinates            :      0.000 s ( 0.140 %)
B/P matrices and projection     :      0.000 s ( 1.566 %)
Hessian update/contruction      :      0.004 s (40.935 %)
Making the step                 :      0.002 s (21.423 %)
Converting the step to Cartesian:      0.001 s ( 6.176 %)
Storing new data                :      0.000 s ( 4.179 %)
Checking convergence            :      0.000 s ( 0.043 %)
GOAT stuff                      :      0.000 s ( 0.000 %)
Final printing                  :      0.002 s (16.348 %)
Total time                      :      0.009 s

Time for energy+gradient        :      0.682 s
Time for complete geometry iter :      0.753 s

         *************************************************************
         *                GEOMETRY OPTIMIZATION CYCLE  16            *
         *************************************************************
------------------------------------------------------------------------------
                         ORCA GEOMETRY RELAXATION STEP
------------------------------------------------------------------------------

Reading the OPT-File                    .... done

---------------------------------------------
FINAL SINGLE POINT ENERGY        -1.444563067549
---------------------------------------------

Getting information on internals        .... done
Copying old internal coords+grads       .... done
Making the new internal coordinates     .... (2022 redundants) done
Validating the new internal coordinates .... (2022 redundants) done
Calculating the B-matrix                .... done
Calculating the G,G- and P matrices     .... done
Transforming gradient to internals      .... done
Projecting the internal gradient        .... done
Number of atoms                         ....   9
Number of internal coordinates          ....  30
Current Energy                          ....    -1.444563068 Eh
Current gradient norm                   ....     0.011132067 Eh/bohr
Maximum allowed component of the step   ....  0.300
Current trust radius                    ....  0.700
Updating the Hessian (BFGS)             .... done
Making uphill step                      .... done
Uphill step size                        .... 0.548503
Converting the step to Cartesian space:
 Initial RMS(Int)=    0.1001425547
Transforming coordinates:
 Iter   0:  RMS(Cart)=    0.0767284515 RMS(Int)=    0.0982492734
 Iter   5:  RMS(Cart)=    0.0001008647 RMS(Int)=    0.0001169793
 Iter  10:  RMS(Cart)=    0.0000002459 RMS(Int)=    0.0000002513
Imposing constraints:
 Iter   0:  RMS(Cart)=    0.0000000192 RMS(Int)=    0.0000000007
CONVERGED
done
Storing new coordinates                 .... done
Current trust radius                    ....     0.7000
Energy difference                       ....     0.3711 kcal/mol
Maximum difference                      ....     0.2700 kcal/mol
New trust radius                        ....     0.4667

                                .--------------------.
          ----------------------|Geometry convergence|-------------------------
          Item                value                   Tolerance       Converged
          ---------------------------------------------------------------------
          Energy change      -0.0005913110            0.0000050000      NO
          RMS gradient        0.0018399220            0.0001000000      NO
          MAX gradient        0.0042331452            0.0003000000      NO
          RMS step            0.1001425547            0.0020000000      NO
          MAX step            0.3000000000            0.0040000000      NO
          ........................................................
          Max(Bonds)      0.0000      Max(Angles)    2.26
          Max(Dihed)       17.19      Max(Improp)    0.00
          ---------------------------------------------------------------------

Geometry step timings:
Preparation and reading OPT file:      0.001 s (11.858 %)
Internal coordinates            :      0.000 s ( 0.161 %)
B/P matrices and projection     :      0.000 s ( 1.761 %)
Hessian update/contruction      :      0.003 s (37.906 %)
Making the step                 :      0.002 s (19.437 %)
Converting the step to Cartesian:      0.001 s (11.933 %)
Storing new data                :      0.000 s ( 4.366 %)
Checking convergence            :      0.000 s ( 0.050 %)
GOAT stuff                      :      0.000 s ( 0.000 %)
Final printing                  :      0.001 s (12.516 %)
Total time                      :      0.008 s

Time for energy+gradient        :      0.659 s
Time for complete geometry iter :      0.717 s

         *************************************************************
         *                GEOMETRY OPTIMIZATION CYCLE  17            *
         *************************************************************
------------------------------------------------------------------------------
                         ORCA GEOMETRY RELAXATION STEP
------------------------------------------------------------------------------

Reading the OPT-File                    .... done

---------------------------------------------
FINAL SINGLE POINT ENERGY        -1.444476431649
---------------------------------------------

Getting information on internals        .... done
Copying old internal coords+grads       .... done
Making the new internal coordinates     .... (2022 redundants) done
Validating the new internal coordinates .... (2022 redundants) done
Calculating the B-matrix                .... done
Calculating the G,G- and P matrices     .... done
Transforming gradient to internals      .... done
Projecting the internal gradient        .... done
Number of atoms                         ....   9
Number of internal coordinates          ....  30
Current Energy                          ....    -1.444476432 Eh
Current gradient norm                   ....     0.012960486 Eh/bohr
Maximum allowed component of the step   ....  0.300
Current trust radius                    ....  0.467
Updating the Hessian (BFGS)             .... done
Making uphill step                      .... done
Uphill step size                        .... 0.466359
Converting the step to Cartesian space:
 Initial RMS(Int)=    0.0851452029
Transforming coordinates:
 Iter   0:  RMS(Cart)=    0.0660026958 RMS(Int)=    0.0842860871
 Iter   5:  RMS(Cart)=    0.0000392736 RMS(Int)=    0.0000432712
 Iter  10:  RMS(Cart)=    0.0000000408 RMS(Int)=    0.0000000436
Imposing constraints:
 Iter   0:  RMS(Cart)=    0.0000000019 RMS(Int)=    0.0000000001
CONVERGED
done
Storing new coordinates                 .... done
Current trust radius                    ....     0.4667
Energy difference                       ....     0.0544 kcal/mol
Maximum difference                      ....     0.2700 kcal/mol
New trust radius                        ....     0.7000

                                .--------------------.
          ----------------------|Geometry convergence|-------------------------
          Item                value                   Tolerance       Converged
          ---------------------------------------------------------------------
          Energy change       0.0000866359            0.0000050000      NO
          RMS gradient        0.0017203612            0.0001000000      NO
          MAX gradient        0.0061088695            0.0003000000      NO
          RMS step            0.0851452029            0.0020000000      NO
          MAX step            0.2622003736            0.0040000000      NO
          ........................................................
          Max(Bonds)      0.0000      Max(Angles)    1.15
          Max(Dihed)       15.02      Max(Improp)    0.00
          ---------------------------------------------------------------------

Geometry step timings:
Preparation and reading OPT file:      0.001 s ( 3.583 %)
Internal coordinates            :      0.000 s ( 0.043 %)
B/P matrices and projection     :      0.000 s ( 0.494 %)
Hessian update/contruction      :      0.011 s (37.858 %)
Making the step                 :      0.007 s (26.229 %)
Converting the step to Cartesian:      0.000 s ( 1.717 %)
Storing new data                :      0.000 s ( 1.443 %)
Checking convergence            :      0.000 s ( 0.011 %)
GOAT stuff                      :      0.000 s ( 0.004 %)
Final printing                  :      0.008 s (28.615 %)
Total time                      :      0.028 s

Time for energy+gradient        :      0.769 s
Time for complete geometry iter :      1.015 s

         *************************************************************
         *                GEOMETRY OPTIMIZATION CYCLE  18            *
         *************************************************************
------------------------------------------------------------------------------
                         ORCA GEOMETRY RELAXATION STEP
------------------------------------------------------------------------------

Reading the OPT-File                    .... done

---------------------------------------------
FINAL SINGLE POINT ENERGY        -1.444405636942
---------------------------------------------

Getting information on internals        .... done
Copying old internal coords+grads       .... done
Making the new internal coordinates     .... (2022 redundants) done
Validating the new internal coordinates .... (2022 redundants) done
Calculating the B-matrix                .... done
Calculating the G,G- and P matrices     .... done
Transforming gradient to internals      .... done
Projecting the internal gradient        .... done
Number of atoms                         ....   9
Number of internal coordinates          ....  30
Current Energy                          ....    -1.444405637 Eh
Current gradient norm                   ....     0.014867262 Eh/bohr
Maximum allowed component of the step   ....  0.300
Current trust radius                    ....  0.700
Updating the Hessian (BFGS)             .... done
Making uphill step                      .... done
Uphill step size                        .... 0.571393
Converting the step to Cartesian space:
 Initial RMS(Int)=    0.1043216482
Transforming coordinates:
 Iter   0:  RMS(Cart)=    0.0891894184 RMS(Int)=    0.1025353042
 Iter   5:  RMS(Cart)=    0.0001005850 RMS(Int)=    0.0001262201
 Iter  10:  RMS(Cart)=    0.0000002652 RMS(Int)=    0.0000002852
Imposing constraints:
 Iter   0:  RMS(Cart)=    0.0000000216 RMS(Int)=    0.0000000008
CONVERGED
done
Storing new coordinates                 .... done
Current trust radius                    ....     0.7000
Energy difference                       ....     0.0444 kcal/mol
Maximum difference                      ....     0.2700 kcal/mol
New trust radius                        ....     0.7000

                                .--------------------.
          ----------------------|Geometry convergence|-------------------------
          Item                value                   Tolerance       Converged
          ---------------------------------------------------------------------
          Energy change       0.0000707947            0.0000050000      NO
          RMS gradient        0.0019614836            0.0001000000      NO
          MAX gradient        0.0075374374            0.0003000000      NO
          RMS step            0.1043216482            0.0020000000      NO
          MAX step            0.3000000000            0.0040000000      NO
          ........................................................
          Max(Bonds)      0.0000      Max(Angles)    1.38
          Max(Dihed)       17.19      Max(Improp)    0.00
          ---------------------------------------------------------------------

Geometry step timings:
Preparation and reading OPT file:      0.001 s ( 6.758 %)
Internal coordinates            :      0.000 s ( 0.124 %)
B/P matrices and projection     :      0.000 s ( 1.535 %)
Hessian update/contruction      :      0.003 s (42.258 %)
Making the step                 :      0.002 s (22.453 %)
Converting the step to Cartesian:      0.001 s ( 8.380 %)
Storing new data                :      0.000 s ( 3.602 %)
Checking convergence            :      0.000 s ( 0.025 %)
GOAT stuff                      :      0.000 s ( 0.000 %)
Final printing                  :      0.001 s (14.853 %)
Total time                      :      0.008 s

Time for energy+gradient        :      0.747 s
Time for complete geometry iter :      0.773 s

         *************************************************************
         *                GEOMETRY OPTIMIZATION CYCLE  19            *
         *************************************************************
------------------------------------------------------------------------------
                         ORCA GEOMETRY RELAXATION STEP
------------------------------------------------------------------------------

Reading the OPT-File                    .... done

---------------------------------------------
FINAL SINGLE POINT ENERGY        -1.444498861656
---------------------------------------------

Getting information on internals        .... done
Copying old internal coords+grads       .... done
Making the new internal coordinates     .... (2022 redundants) done
Validating the new internal coordinates .... (2022 redundants) done
Calculating the B-matrix                .... done
Calculating the G,G- and P matrices     .... done
Transforming gradient to internals      .... done
Projecting the internal gradient        .... done
Number of atoms                         ....   9
Number of internal coordinates          ....  30
Current Energy                          ....    -1.444498862 Eh
Current gradient norm                   ....     0.011893642 Eh/bohr
Maximum allowed component of the step   ....  0.300
Current trust radius                    ....  0.700
Updating the Hessian (BFGS)             .... done
Making uphill step                      .... done
Uphill step size                        .... 0.549214
Converting the step to Cartesian space:
 Initial RMS(Int)=    0.1002722090
Transforming coordinates:
 Iter   0:  RMS(Cart)=    0.0786795836 RMS(Int)=    0.0984664472
 Iter   5:  RMS(Cart)=    0.0000978631 RMS(Int)=    0.0001123486
 Iter  10:  RMS(Cart)=    0.0000002244 RMS(Int)=    0.0000002328
Imposing constraints:
 Iter   0:  RMS(Cart)=    0.0000000175 RMS(Int)=    0.0000000007
CONVERGED
done
Storing new coordinates                 .... done
Current trust radius                    ....     0.7000
Energy difference                       ....     0.0585 kcal/mol
Maximum difference                      ....     0.2700 kcal/mol
New trust radius                        ....     0.7000

                                .--------------------.
          ----------------------|Geometry convergence|-------------------------
          Item                value                   Tolerance       Converged
          ---------------------------------------------------------------------
          Energy change      -0.0000932247            0.0000050000      NO
          RMS gradient        0.0014882841            0.0001000000      NO
          MAX gradient        0.0066932164            0.0003000000      NO
          RMS step            0.1002722090            0.0020000000      NO
          MAX step            0.3000000000            0.0040000000      NO
          ........................................................
          Max(Bonds)      0.0000      Max(Angles)    1.29
          Max(Dihed)       17.19      Max(Improp)    0.00
          ---------------------------------------------------------------------

Geometry step timings:
Preparation and reading OPT file:      0.001 s ( 5.442 %)
Internal coordinates            :      0.000 s ( 0.068 %)
B/P matrices and projection     :      0.000 s ( 0.772 %)
Hessian update/contruction      :      0.010 s (65.735 %)
Making the step                 :      0.002 s (12.530 %)
Converting the step to Cartesian:      0.001 s ( 3.533 %)
Storing new data                :      0.000 s ( 2.254 %)
Checking convergence            :      0.000 s ( 0.020 %)
GOAT stuff                      :      0.000 s ( 0.007 %)
Final printing                  :      0.001 s ( 9.639 %)
Total time                      :      0.015 s

Time for energy+gradient        :      0.786 s
Time for complete geometry iter :      0.850 s

         *************************************************************
         *                GEOMETRY OPTIMIZATION CYCLE  20            *
         *************************************************************
------------------------------------------------------------------------------
                         ORCA GEOMETRY RELAXATION STEP
------------------------------------------------------------------------------

Reading the OPT-File                    .... done

---------------------------------------------
FINAL SINGLE POINT ENERGY        -1.444350122676
---------------------------------------------

Getting information on internals        .... done
Copying old internal coords+grads       .... done
Making the new internal coordinates     .... (2022 redundants) done
Validating the new internal coordinates .... (2022 redundants) done
Calculating the B-matrix                .... done
Calculating the G,G- and P matrices     .... done
Transforming gradient to internals      .... done
Projecting the internal gradient        .... done
Number of atoms                         ....   9
Number of internal coordinates          ....  30
Current Energy                          ....    -1.444350123 Eh
Current gradient norm                   ....     0.014547978 Eh/bohr
Maximum allowed component of the step   ....  0.300
Current trust radius                    ....  0.700
Updating the Hessian (BFGS)             .... done
Making uphill step                      .... done
Uphill step size                        .... 0.573857
Converting the step to Cartesian space:
 Initial RMS(Int)=    0.1047715368
Transforming coordinates:
[...]
GOAT stuff                      :      0.000 s ( 0.000 %)
Final printing                  :      0.001 s (14.008 %)
Total time                      :      0.008 s

Time for energy+gradient        :      0.695 s
Time for complete geometry iter :      0.720 s

         *************************************************************
         *                GEOMETRY OPTIMIZATION CYCLE 693            *
         *************************************************************
------------------------------------------------------------------------------
                         ORCA GEOMETRY RELAXATION STEP
------------------------------------------------------------------------------

Reading the OPT-File                    .... done

---------------------------------------------
FINAL SINGLE POINT ENERGY        -1.445945877444
---------------------------------------------

Getting information on internals        .... done
Copying old internal coords+grads       .... done
Making the new internal coordinates     .... (2022 redundants) done
Validating the new internal coordinates .... (2022 redundants) done
Calculating the B-matrix                .... done
Calculating the G,G- and P matrices     .... done
Transforming gradient to internals      .... done
Projecting the internal gradient        .... done
Number of atoms                         ....   9
Number of internal coordinates          ....  30
Current Energy                          ....    -1.445945877 Eh
Current gradient norm                   ....     0.011676157 Eh/bohr
Maximum allowed component of the step   ....  0.300
Current trust radius                    ....  0.450
Updating the Hessian (BFGS)             .... done
Making uphill step                      .... done
Uphill step size                        .... 0.449623
Converting the step to Cartesian space:
 Initial RMS(Int)=    0.0820894760
Transforming coordinates:
 Iter   0:  RMS(Cart)=    0.0602909694 RMS(Int)=    0.0811493320
 Iter   5:  RMS(Cart)=    0.0000231780 RMS(Int)=    0.0000280677
Imposing constraints:
 Iter   0:  RMS(Cart)=    0.0000000155 RMS(Int)=    0.0000000003
CONVERGED
done
Storing new coordinates                 .... done
Current trust radius                    ....     0.4500
Energy difference                       ....     0.0442 kcal/mol
Maximum difference                      ....     0.2700 kcal/mol
New trust radius                        ....     0.6750

                                .--------------------.
          ----------------------|Geometry convergence|-------------------------
          Item                value                   Tolerance       Converged
          ---------------------------------------------------------------------
          Energy change       0.0000703741            0.0000050000      NO
          RMS gradient        0.0014916656            0.0001000000      NO
          MAX gradient        0.0063615456            0.0003000000      NO
          RMS step            0.0820894760            0.0020000000      NO
          MAX step            0.2671873592            0.0040000000      NO
          ........................................................
          Max(Bonds)      0.0000      Max(Angles)    3.23
          Max(Dihed)       15.31      Max(Improp)    0.00
          ---------------------------------------------------------------------

Geometry step timings:
Preparation and reading OPT file:      0.001 s ( 9.410 %)
Internal coordinates            :      0.000 s ( 0.130 %)
B/P matrices and projection     :      0.000 s ( 1.599 %)
Hessian update/contruction      :      0.003 s (41.136 %)
Making the step                 :      0.001 s (18.456 %)
Converting the step to Cartesian:      0.000 s ( 6.096 %)
Storing new data                :      0.000 s ( 3.457 %)
Checking convergence            :      0.000 s ( 0.039 %)
GOAT stuff                      :      0.000 s ( 0.000 %)
Final printing                  :      0.002 s (19.665 %)
Total time                      :      0.008 s

Time for energy+gradient        :      0.725 s
Time for complete geometry iter :      0.751 s

         *************************************************************
         *                GEOMETRY OPTIMIZATION CYCLE 694            *
         *************************************************************
------------------------------------------------------------------------------
                         ORCA GEOMETRY RELAXATION STEP
------------------------------------------------------------------------------

Reading the OPT-File                    .... done

---------------------------------------------
FINAL SINGLE POINT ENERGY        -1.445714848378
---------------------------------------------

Getting information on internals        .... done
Copying old internal coords+grads       .... done
Making the new internal coordinates     .... (2022 redundants) done
Validating the new internal coordinates .... (2022 redundants) done
Calculating the B-matrix                .... done
Calculating the G,G- and P matrices     .... done
Transforming gradient to internals      .... done
Projecting the internal gradient        .... done
Number of atoms                         ....   9
Number of internal coordinates          ....  30
Current Energy                          ....    -1.445714848 Eh
Current gradient norm                   ....     0.012576338 Eh/bohr
Maximum allowed component of the step   ....  0.300
Current trust radius                    ....  0.675
Updating the Hessian (BFGS)             .... done
Making uphill step                      .... done
Uphill step size                        .... 0.100795
Converting the step to Cartesian space:
 Initial RMS(Int)=    0.0184025438
Transforming coordinates:
 Iter   0:  RMS(Cart)=    0.0182544737 RMS(Int)=    0.0184047219
Imposing constraints:
 Iter   0:  RMS(Cart)=    0.0000000002 RMS(Int)=    0.0000000000
CONVERGED
done
Storing new coordinates                 .... done
Current trust radius                    ....     0.6750
Energy difference                       ....     0.1450 kcal/mol
Maximum difference                      ....     0.2700 kcal/mol
New trust radius                        ....     0.7000

                                .--------------------.
          ----------------------|Geometry convergence|-------------------------
          Item                value                   Tolerance       Converged
          ---------------------------------------------------------------------
          Energy change       0.0002310291            0.0000050000      NO
          RMS gradient        0.0016360216            0.0001000000      NO
          MAX gradient        0.0064434448            0.0003000000      NO
          RMS step            0.0184025438            0.0020000000      NO
          MAX step            0.0485643370            0.0040000000      NO
          ........................................................
          Max(Bonds)      0.0000      Max(Angles)    1.42
          Max(Dihed)        2.78      Max(Improp)    0.00
          ---------------------------------------------------------------------

Geometry step timings:
Preparation and reading OPT file:      0.001 s (10.830 %)
Internal coordinates            :      0.000 s ( 0.115 %)
B/P matrices and projection     :      0.000 s ( 1.442 %)
Hessian update/contruction      :      0.004 s (47.163 %)
Making the step                 :      0.001 s (14.279 %)
Converting the step to Cartesian:      0.001 s ( 6.332 %)
Storing new data                :      0.000 s ( 4.072 %)
Checking convergence            :      0.000 s ( 0.058 %)
GOAT stuff                      :      0.000 s ( 0.012 %)
Final printing                  :      0.001 s (15.675 %)
Total time                      :      0.009 s

Time for energy+gradient        :      0.795 s
Time for complete geometry iter :      0.822 s

         *************************************************************
         *                GEOMETRY OPTIMIZATION CYCLE 695            *
         *************************************************************
------------------------------------------------------------------------------
                         ORCA GEOMETRY RELAXATION STEP
------------------------------------------------------------------------------

Reading the OPT-File                    .... done

---------------------------------------------
FINAL SINGLE POINT ENERGY        -1.446044709660
---------------------------------------------

Getting information on internals        .... done
Copying old internal coords+grads       .... done
Making the new internal coordinates     .... (2022 redundants) done
Validating the new internal coordinates .... (2022 redundants) done
Calculating the B-matrix                .... done
Calculating the G,G- and P matrices     .... done
Transforming gradient to internals      .... done
Projecting the internal gradient        .... done
Number of atoms                         ....   9
Number of internal coordinates          ....  30
Current Energy                          ....    -1.446044710 Eh
Current gradient norm                   ....     0.012245787 Eh/bohr
Maximum allowed component of the step   ....  0.300
Current trust radius                    ....  0.700
Updating the Hessian (BFGS)             .... done
Making uphill step                      .... done
Uphill step size                        .... 0.295875
Converting the step to Cartesian space:
 Initial RMS(Int)=    0.0540191787
Transforming coordinates:
 Iter   0:  RMS(Cart)=    0.0466442629 RMS(Int)=    0.0537761405
 Iter   5:  RMS(Cart)=    0.0000009443 RMS(Int)=    0.0000010706
Imposing constraints:
 Iter   0:  RMS(Cart)=    0.0000000014 RMS(Int)=    0.0000000000
CONVERGED
done
Storing new coordinates                 .... done
Current trust radius                    ....     0.7000
Energy difference                       ....     0.2070 kcal/mol
Maximum difference                      ....     0.2700 kcal/mol
New trust radius                        ....     0.7000

                                .--------------------.
          ----------------------|Geometry convergence|-------------------------
          Item                value                   Tolerance       Converged
          ---------------------------------------------------------------------
          Energy change      -0.0003298613            0.0000050000      NO
          RMS gradient        0.0015434046            0.0001000000      NO
          MAX gradient        0.0064668198            0.0003000000      NO
          RMS step            0.0540191787            0.0020000000      NO
          MAX step            0.1623524149            0.0040000000      NO
          ........................................................
          Max(Bonds)      0.0000      Max(Angles)    1.70
          Max(Dihed)        9.30      Max(Improp)    0.00
          ---------------------------------------------------------------------

Geometry step timings:
Preparation and reading OPT file:      0.001 s ( 9.839 %)
Internal coordinates            :      0.000 s ( 0.143 %)
B/P matrices and projection     :      0.000 s ( 1.582 %)
Hessian update/contruction      :      0.003 s (38.437 %)
Making the step                 :      0.001 s (19.328 %)
Converting the step to Cartesian:      0.001 s (11.045 %)
Storing new data                :      0.000 s ( 4.615 %)
Checking convergence            :      0.000 s ( 0.039 %)
GOAT stuff                      :      0.000 s ( 0.013 %)
Final printing                  :      0.001 s (14.947 %)
Total time                      :      0.008 s

Time for energy+gradient        :      0.759 s
Time for complete geometry iter :      0.784 s

         *************************************************************
         *                GEOMETRY OPTIMIZATION CYCLE 696            *
         *************************************************************
------------------------------------------------------------------------------
                         ORCA GEOMETRY RELAXATION STEP
------------------------------------------------------------------------------

Reading the OPT-File                    .... done

---------------------------------------------
FINAL SINGLE POINT ENERGY        -1.445807512342
---------------------------------------------

Getting information on internals        .... done
Copying old internal coords+grads       .... done
Making the new internal coordinates     .... (2022 redundants) done
Validating the new internal coordinates .... (2022 redundants) done
Calculating the B-matrix                .... done
Calculating the G,G- and P matrices     .... done
Transforming gradient to internals      .... done
Projecting the internal gradient        .... done
Number of atoms                         ....   9
Number of internal coordinates          ....  30
Current Energy                          ....    -1.445807512 Eh
Current gradient norm                   ....     0.011621785 Eh/bohr
Maximum allowed component of the step   ....  0.300
Current trust radius                    ....  0.700
Updating the Hessian (BFGS)             .... done
Making uphill step                      .... done
Uphill step size                        .... 0.065451
Stopped uphill after  13 steps          .... angle > 90
Converting the step to Cartesian space:
 Initial RMS(Int)=    0.0119497401
Transforming coordinates:
 Iter   0:  RMS(Cart)=    0.0111923178 RMS(Int)=    0.0119546919
Imposing constraints:
 Iter   0:  RMS(Cart)=    0.0000000001 RMS(Int)=    0.0000000000
CONVERGED
done
Storing new coordinates                 .... done
The predicted energy change is          ....    -0.000001551
Previously predicted energy change      ....    -0.000076302
Actually observed energy change         ....     0.000237197
Ratio of predicted to observed change   ....     3.108680910
New trust radius                        ....     0.466666667

                                .--------------------.
          ----------------------|Geometry convergence|-------------------------
          Item                value                   Tolerance       Converged
          ---------------------------------------------------------------------
          Energy change       0.0002371973            0.0000050000      NO
          RMS gradient        0.0014560020            0.0001000000      NO
          MAX gradient        0.0059257040            0.0003000000      NO
          RMS step            0.0119497401            0.0020000000      NO
          MAX step            0.0309474975            0.0040000000      NO
          ........................................................
          Max(Bonds)      0.0000      Max(Angles)    0.75
          Max(Dihed)        1.77      Max(Improp)    0.00
          ---------------------------------------------------------------------

Geometry step timings:
Preparation and reading OPT file:      0.001 s (11.142 %)
Internal coordinates            :      0.000 s ( 0.128 %)
B/P matrices and projection     :      0.000 s ( 1.592 %)
Hessian update/contruction      :      0.003 s (39.795 %)
Making the step                 :      0.001 s (14.288 %)
Converting the step to Cartesian:      0.001 s ( 7.291 %)
Storing new data                :      0.001 s ( 9.730 %)
Checking convergence            :      0.000 s ( 0.051 %)
GOAT stuff                      :      0.000 s ( 0.013 %)
Final printing                  :      0.001 s (15.956 %)
Total time                      :      0.008 s

Time for energy+gradient        :      0.728 s
Time for complete geometry iter :      0.754 s

         *************************************************************
         *                GEOMETRY OPTIMIZATION CYCLE 697            *
         *************************************************************
------------------------------------------------------------------------------
                         ORCA GEOMETRY RELAXATION STEP
------------------------------------------------------------------------------

Reading the OPT-File                    .... done

---------------------------------------------
FINAL SINGLE POINT ENERGY        -1.445958634511
---------------------------------------------

Getting information on internals        .... done
Copying old internal coords+grads       .... done
Making the new internal coordinates     .... (2022 redundants) done
Validating the new internal coordinates .... (2022 redundants) done
Calculating the B-matrix                .... done
Calculating the G,G- and P matrices     .... done
Transforming gradient to internals      .... done
Projecting the internal gradient        .... done
Number of atoms                         ....   9
Number of internal coordinates          ....  30
Current Energy                          ....    -1.445958635 Eh
Current gradient norm                   ....     0.011525558 Eh/bohr
Maximum allowed component of the step   ....  0.300
Current trust radius                    ....  0.300
Evaluating the initial hessian          ....  (Almloef) done
Projecting the Hessian                  .... done
Forming the augmented Hessian           .... done
Diagonalizing the augmented Hessian     .... done
Last element of RFO vector              ....  0.999742472
Lowest eigenvalues of augmented Hessian:
 -0.000142980  0.012704347  0.021303642  0.110710252  0.132254927
Length of the computed step             ....  0.022699235
The final length of the internal step   ....  0.022699235
Converting the step to Cartesian space:
 Initial RMS(Int)=    0.0041442943
Transforming coordinates:
 Iter   0:  RMS(Cart)=    0.0041490920 RMS(Int)=    0.0041432412
done
Storing new coordinates                 .... done
The predicted energy change is          ....    -0.000071527
Previously predicted energy change      ....    -0.000001551
Actually observed energy change         ....    -0.000151122
Ratio of predicted to observed change   ....    97.434306932
New trust radius                        ....     0.311111111

                                .--------------------.
          ----------------------|Geometry convergence|-------------------------
          Item                value                   Tolerance       Converged
          ---------------------------------------------------------------------
          Energy change      -0.0001511222            0.0000050000      NO
          RMS gradient        0.0014825359            0.0001000000      NO
          MAX gradient        0.0059118212            0.0003000000      NO
          RMS step            0.0041442943            0.0020000000      NO
          MAX step            0.0103950695            0.0040000000      NO
          ........................................................
          Max(Bonds)      0.0055      Max(Angles)    0.16
          Max(Dihed)        0.39      Max(Improp)    0.00
          ---------------------------------------------------------------------

Geometry step timings:
Preparation and reading OPT file:      0.000 s (10.086 %)
Internal coordinates            :      0.000 s ( 0.214 %)
B/P matrices and projection     :      0.000 s ( 2.612 %)
Hessian update/contruction      :      0.002 s (50.107 %)
Making the step                 :      0.000 s ( 1.649 %)
Converting the step to Cartesian:      0.000 s ( 0.300 %)
Storing new data                :      0.000 s ( 8.715 %)
Checking convergence            :      0.000 s ( 0.107 %)
GOAT stuff                      :      0.000 s ( 0.000 %)
Final printing                  :      0.001 s (26.188 %)
Total time                      :      0.005 s

Time for energy+gradient        :      0.709 s
Time for complete geometry iter :      0.731 s

         *************************************************************
         *                GEOMETRY OPTIMIZATION CYCLE 698            *
         *************************************************************
