                                 *****************
                                 * O   R   C   A *
                                 *****************

                       *****************************
                       * Geometry Optimization Run *
                       *****************************

Geometry optimization settings:
Update method            Update   .... BFGS
Choice of coordinates    CoordSys .... (2022) Redundant Internals
Initial Hessian          InHess   .... Almloef's Model
Max. no of cycles        MaxIter  .... 9000

Convergence Tolerances:
Energy Change            TolE     ....  5.0000e-06 Eh
Max. Gradient            TolMAXG  ....  3.0000e-04 Eh/bohr
RMS Gradient             TolRMSG  ....  1.0000e-04 Eh/bohr
Max. Displacement        TolMAXD  ....  4.0000e-03 bohr
RMS Displacement         TolRMSD  ....  2.0000e-03 bohr
Strict Convergence                .... False

------------------------------------------------------------------------------
                        ORCA OPTIMIZATION COORDINATE SETUP
------------------------------------------------------------------------------

The optimization will be done in redundant internal coordinates (2022)
Making redundant internal coordinates   ...  (2022 redundants) done
Evaluating the initial hessian          ...  (Almloef) done
Evaluating the coordinates              ...  done
Calculating the B-matrix                .... done
Calculating the G-matrix                .... done
Diagonalizing the G-matrix              .... done
The first mode is                       ....    9
The number of degrees of freedom        ....   21

    -----------------------------------------------------------------
                    Redundant Internal Coordinates


    -----------------------------------------------------------------
         Definition                    Initial Value    Approx d2E/dq
    -----------------------------------------------------------------
      1. B(C   1,C   0)                  1.5112         0.400329   
      2. B(O   2,C   1)                  1.4109         0.518227   
      3. B(H   3,C   0)                  1.0819         0.370957   
      4. B(H   4,C   0)                  1.0835         0.368784   
      5. B(H   5,C   0)                  1.0792         0.374695   
      6. B(H   6,C   1)                  1.0915         0.358170   
      7. B(H   7,C   1)                  1.0864         0.364937   
      8. B(H   8,O   2)                  0.9357         0.568490   
      9. A(C   1,C   0,H   5)          112.5155         0.330191   
     10. A(H   3,C   0,H   4)          107.9622         0.293300   
     11. A(H   3,C   0,H   5)          107.2235         0.294037   
     12. A(C   1,C   0,H   4)          112.3237         0.329325   
     13. A(C   1,C   0,H   3)          112.2073         0.329644   
     14. A(H   4,C   0,H   5)          104.1299         0.293764   
     15. A(H   6,C   1,H   7)          105.6154         0.291204   
     16. A(C   0,C   1,O   2)          112.7462         0.386639   
     17. A(O   2,C   1,H   7)          106.1577         0.341088   
     18. A(C   0,C   1,H   7)          110.9960         0.328755   
     19. A(O   2,C   1,H   6)          110.5488         0.340022   
     20. A(C   0,C   1,H   6)          110.4624         0.327741   
     21. A(C   1,O   2,H   8)          108.8648         0.364443   
     22. D(O   2,C   1,C   0,H   4)    -70.3483         0.012715   
     23. D(H   6,C   1,C   0,H   3)    175.7441         0.012715   
     24. D(O   2,C   1,C   0,H   3)     51.5028         0.012715   
     25. D(H   6,C   1,C   0,H   4)     53.8930         0.012715   
     26. D(H   6,C   1,C   0,H   5)    -63.2289         0.012715   
     27. D(O   2,C   1,C   0,H   5)    172.5298         0.012715   
     28. D(H   8,O   2,C   1,C   0)     50.4138         0.021286   
     29. D(H   8,O   2,C   1,H   7)    172.1471         0.021286   
     30. D(H   8,O   2,C   1,H   6)    -73.7800         0.021286   
    -----------------------------------------------------------------

Number of atoms                         .... 9
Number of degrees of freedom            .... 30


         *************************************************************
         *                GEOMETRY OPTIMIZATION CYCLE   1            *
         *************************************************************
------------------------------------------------------------------------------
                         ORCA GEOMETRY RELAXATION STEP
------------------------------------------------------------------------------

Reading the OPT-File                    .... done

---------------------------------------------
FINAL SINGLE POINT ENERGY        -1.448364252698
---------------------------------------------

Getting information on internals        .... done
Copying old internal coords+grads       .... done
Making the new internal coordinates     .... (2022 redundants) done
Validating the new internal coordinates .... (2022 redundants) done
Calculating the B-matrix                .... done
Calculating the G,G- and P matrices     .... done
Transforming gradient to internals      .... done
Projecting the internal gradient        .... done
Number of atoms                         ....   9
Number of internal coordinates          ....  30
Current Energy                          ....    -1.448364253 Eh
Current gradient norm                   ....     0.000232152 Eh/bohr
Maximum allowed component of the step   ....  0.300
Current trust radius                    ....  0.300
Evaluating the initial hessian          ....  (Almloef) done
Projecting the Hessian                  .... done
Forming the augmented Hessian           .... done
Diagonalizing the augmented Hessian     .... done
Last element of RFO vector              ....  0.999992647
Lowest eigenvalues of augmented Hessian:
 -0.000000380  0.012714846  0.021286315  0.100081123  0.128402190
Length of the computed step             ....  0.003834855
The final length of the internal step   ....  0.003834855
Converting the step to Cartesian space:
 Initial RMS(Int)=    0.0007001456
Transforming coordinates:
 Iter   0:  RMS(Cart)=    0.0007905531 RMS(Int)=    0.0007001494
done
Storing new coordinates                 .... done

       Everything but the energy has converged. However, the energy
       appears to be close enough to convergence to make sure that the
       final evaluation at the new geometry represents the equilibrium energy.
       Convergence will therefore be signaled now


			-----------------------
			     GOAT ITER   1       
			-----------------------

	Minimum found after 1 optimization iterations! E = -1.448364

	No previous minima found yet, adding first to ethanol_goat.goat.0.1.ensembleen.tmp.

	Number of GOAT steps per global cycle: 27

	Current MaxEn         : 27.00 kcal/mol
	Current Temperature   : 1451.98 K
	Current UphillGradComp: 1.00

                                .--------------------.
          ----------------------|Geometry convergence|-------------------------
          Item                value                   Tolerance       Converged
          ---------------------------------------------------------------------
          RMS gradient        0.0000356076            0.0001000000      YES
          MAX gradient        0.0000808342            0.0003000000      YES
          RMS step            0.0007001456            0.0020000000      YES
          MAX step            0.0018534921            0.0040000000      YES
          ........................................................
          Max(Bonds)      0.0001      Max(Angles)    0.02
          Max(Dihed)        0.11      Max(Improp)    0.00
          ---------------------------------------------------------------------

Geometry step timings:
Preparation and reading OPT file:      0.001 s ( 1.661 %)
Internal coordinates            :      0.000 s ( 0.017 %)
B/P matrices and projection     :      0.000 s ( 0.196 %)
Hessian update/contruction      :      0.003 s ( 5.846 %)
Making the step                 :      0.000 s ( 0.144 %)
Converting the step to Cartesian:      0.000 s ( 0.036 %)
Storing new data                :      0.000 s ( 0.627 %)
Checking convergence            :      0.000 s ( 0.002 %)
GOAT stuff                      :      0.035 s (73.274 %)
Final printing                  :      0.009 s (18.187 %)
Total time                      :      0.048 s

Time for energy+gradient        :      0.733 s
Time for complete geometry iter :      1.030 s

         *************************************************************
         *                GEOMETRY OPTIMIZATION CYCLE   2            *
         *************************************************************
------------------------------------------------------------------------------
                         ORCA GEOMETRY RELAXATION STEP
------------------------------------------------------------------------------

Reading the OPT-File                    .... done

---------------------------------------------
FINAL SINGLE POINT ENERGY        -1.448388364955
---------------------------------------------

Getting information on internals        .... done
Copying old internal coords+grads       .... done
Making the new internal coordinates     .... (2022 redundants) done
Validating the new internal coordinates .... (2022 redundants) done
Calculating the B-matrix                .... done
Calculating the G,G- and P matrices     .... done
Transforming gradient to internals      .... done
Projecting the internal gradient        .... done
Number of atoms                         ....   9
Number of internal coordinates          ....  30
Current Energy                          ....    -1.448388365 Eh
Current gradient norm                   ....     0.000198523 Eh/bohr
Maximum allowed component of the step   ....  0.300
Current trust radius                    ....  0.300
Updating the Hessian (BFGS)             .... done
Making initial random step              .... (random normal) done
Converting the step to Cartesian space:
 Initial RMS(Int)=    0.0556025931
Transforming coordinates:
 Iter   0:  RMS(Cart)=    0.0687844569 RMS(Int)=    0.0463204364
 Iter   5:  RMS(Cart)=    0.0000003438 RMS(Int)=    0.0000003794
Imposing constraints:
 Iter   0:  RMS(Cart)=    0.0000000041 RMS(Int)=    0.0000000000
CONVERGED
done
Storing new coordinates                 .... done
Current trust radius                    ....     0.3000
Energy difference                       ....     0.0151 kcal/mol
Maximum difference                      ....     0.2700 kcal/mol
New trust radius                        ....     0.4500

                                .--------------------.
          ----------------------|Geometry convergence|-------------------------
          Item                value                   Tolerance       Converged
          ---------------------------------------------------------------------
          Energy change      -0.0000241123            0.0000050000      NO
          RMS gradient        0.0000274603            0.0001000000      YES
          MAX gradient        0.0000641342            0.0003000000      YES
          RMS step            0.0556025931            0.0020000000      NO
          MAX step            0.1339741981            0.0040000000      NO
          ........................................................
          Max(Bonds)      0.0000      Max(Angles)    7.68
          Max(Dihed)        5.35      Max(Improp)    0.00
          ---------------------------------------------------------------------

Geometry step timings:
Preparation and reading OPT file:      0.001 s ( 7.604 %)
Internal coordinates            :      0.000 s ( 0.076 %)
B/P matrices and projection     :      0.000 s ( 1.036 %)
Hessian update/contruction      :      0.004 s (42.516 %)
Making the step                 :      0.002 s (22.398 %)
Converting the step to Cartesian:      0.001 s ( 9.819 %)
Storing new data                :      0.000 s ( 5.029 %)
Checking convergence            :      0.000 s ( 0.055 %)
GOAT stuff                      :      0.000 s ( 0.011 %)
Final printing                  :      0.001 s (11.444 %)
Total time                      :      0.009 s

Time for energy+gradient        :      0.706 s
Time for complete geometry iter :      0.753 s

         *************************************************************
         *                GEOMETRY OPTIMIZATION CYCLE   3            *
         *************************************************************
------------------------------------------------------------------------------
                         ORCA GEOMETRY RELAXATION STEP
------------------------------------------------------------------------------

Reading the OPT-File                    .... done

---------------------------------------------
FINAL SINGLE POINT ENERGY        -1.444744890789
---------------------------------------------

Getting information on internals        .... done
Copying old internal coords+grads       .... done
Making the new internal coordinates     .... (2022 redundants) done
Validating the new internal coordinates .... (2022 redundants) done
Calculating the B-matrix                .... done
Calculating the G,G- and P matrices     .... done
Transforming gradient to internals      .... done
Projecting the internal gradient        .... done
Number of atoms                         ....   9
Number of internal coordinates          ....  30
Current Energy                          ....    -1.444744891 Eh
Current gradient norm                   ....     0.036086118 Eh/bohr
Maximum allowed component of the step   ....  0.300
Current trust radius                    ....  0.450
Updating the Hessian (BFGS)             .... done
Making uphill step                      .... done
Uphill step size                        .... 0.449668
Converting the step to Cartesian space:
 Initial RMS(Int)=    0.0820978052
Transforming coordinates:
 Iter   0:  RMS(Cart)=    0.0795819345 RMS(Int)=    1.1040324197
 Iter   5:  RMS(Cart)=    0.0000212240 RMS(Int)=    0.0000242678
Imposing constraints:
 Iter   0:  RMS(Cart)=    0.0000000111 RMS(Int)=    0.0000000003
CONVERGED
done
Storing new coordinates                 .... done
Current trust radius                    ....     0.4500
Energy difference                       ....     2.2863 kcal/mol
Maximum difference                      ....     0.2700 kcal/mol
New trust radius                        ....     0.3000

                                .--------------------.
          ----------------------|Geometry convergence|-------------------------
          Item                value                   Tolerance       Converged
          ---------------------------------------------------------------------
          Energy change       0.0036434742            0.0000050000      NO
          RMS gradient        0.0066170341            0.0001000000      NO
          MAX gradient        0.0205059723            0.0003000000      NO
          RMS step            0.0820978052            0.0020000000      NO
          MAX step            0.2503644410            0.0040000000      NO
          ........................................................
          Max(Bonds)      0.0000      Max(Angles)    2.61
          Max(Dihed)       14.34      Max(Improp)    0.00
          ---------------------------------------------------------------------

Geometry step timings:
Preparation and reading OPT file:      0.001 s ( 9.193 %)
Internal coordinates            :      0.000 s ( 0.106 %)
B/P matrices and projection     :      0.000 s ( 1.202 %)
Hessian update/contruction      :      0.003 s (38.621 %)
Making the step                 :      0.002 s (22.388 %)
Converting the step to Cartesian:      0.001 s ( 8.136 %)
Storing new data                :      0.000 s ( 4.068 %)
Checking convergence            :      0.000 s ( 0.040 %)
GOAT stuff                      :      0.000 s ( 0.000 %)
Final printing                  :      0.001 s (16.233 %)
Total time                      :      0.008 s

Time for energy+gradient        :      0.706 s
Time for complete geometry iter :      0.729 s

         *************************************************************
         *                GEOMETRY OPTIMIZATION CYCLE   4            *
         *************************************************************
------------------------------------------------------------------------------
                         ORCA GEOMETRY RELAXATION STEP
------------------------------------------------------------------------------

Reading the OPT-File                    .... done

---------------------------------------------
FINAL SINGLE POINT ENERGY        -1.441701980043
---------------------------------------------

Getting information on internals        .... done
Copying old internal coords+grads       .... done
Making the new internal coordinates     .... (2022 redundants) done
Validating the new internal coordinates .... (2022 redundants) done
Calculating the B-matrix                .... done
Calculating the G,G- and P matrices     .... done
Transforming gradient to internals      .... done
Projecting the internal gradient        .... done
Number of atoms                         ....   9
Number of internal coordinates          ....  30
Current Energy                          ....    -1.441701980 Eh
Current gradient norm                   ....     0.051728968 Eh/bohr
Maximum allowed component of the step   ....  0.300
Current trust radius                    ....  0.300
Updating the Hessian (BFGS)             .... done
Making uphill step                      .... done
Uphill step size                        .... 0.299781
Converting the step to Cartesian space:
 Initial RMS(Int)=    0.0547321852
Transforming coordinates:
 Iter   0:  RMS(Cart)=    0.0464746674 RMS(Int)=    1.6117034232
 Iter   5:  RMS(Cart)=    0.0000021717 RMS(Int)=    0.0000025365
Imposing constraints:
 Iter   0:  RMS(Cart)=    0.0000000054 RMS(Int)=    0.0000000001
CONVERGED
done
Storing new coordinates                 .... done
Current trust radius                    ....     0.3000
Energy difference                       ....     1.9095 kcal/mol
Maximum difference                      ....     0.2700 kcal/mol
New trust radius                        ....     0.3000

                                .--------------------.
          ----------------------|Geometry convergence|-------------------------
          Item                value                   Tolerance       Converged
          ---------------------------------------------------------------------
          Energy change       0.0030429107            0.0000050000      NO
          RMS gradient        0.0088960266            0.0001000000      NO
          MAX gradient        0.0227655111            0.0003000000      NO
          RMS step            0.0547321852            0.0020000000      NO
          MAX step            0.1753579479            0.0040000000      NO
          ........................................................
          Max(Bonds)      0.0000      Max(Angles)    2.23
          Max(Dihed)       10.05      Max(Improp)    0.00
          ---------------------------------------------------------------------

Geometry step timings:
Preparation and reading OPT file:      0.001 s ( 8.753 %)
Internal coordinates            :      0.000 s ( 0.093 %)
B/P matrices and projection     :      0.000 s ( 1.196 %)
Hessian update/contruction      :      0.004 s (40.804 %)
Making the step                 :      0.002 s (21.588 %)
Converting the step to Cartesian:      0.001 s ( 6.392 %)
Storing new data                :      0.000 s ( 3.351 %)
Checking convergence            :      0.000 s ( 0.052 %)
GOAT stuff                      :      0.000 s ( 0.000 %)
Final printing                  :      0.002 s (17.732 %)
Total time                      :      0.010 s

Time for energy+gradient        :      0.751 s
Time for complete geometry iter :      0.821 s

         *************************************************************
         *                GEOMETRY OPTIMIZATION CYCLE   5            *
         *************************************************************
------------------------------------------------------------------------------
                         ORCA GEOMETRY RELAXATION STEP
------------------------------------------------------------------------------

Reading the OPT-File                    .... done

---------------------------------------------
FINAL SINGLE POINT ENERGY        -1.443628997969
---------------------------------------------

Getting information on internals        .... done
Copying old internal coords+grads       .... done
Making the new internal coordinates     .... (2022 redundants) done
Validating the new internal coordinates .... (2022 redundants) done
Calculating the B-matrix                .... done
Calculating the G,G- and P matrices     .... done
Transforming gradient to internals      .... done
Projecting the internal gradient        .... done
Number of atoms                         ....   9
Number of internal coordinates          ....  30
Current Energy                          ....    -1.443628998 Eh
Current gradient norm                   ....     0.041286876 Eh/bohr
Maximum allowed component of the step   ....  0.300
Current trust radius                    ....  0.300
Updating the Hessian (BFGS)             .... done
Making uphill step                      .... done
Uphill step size                        .... 0.299812
Converting the step to Cartesian space:
 Initial RMS(Int)=    0.0547379778
Transforming coordinates:
 Iter   0:  RMS(Cart)=    0.0441685165 RMS(Int)=    0.0537061871
 Iter   5:  RMS(Cart)=    0.0000019715 RMS(Int)=    0.0000023358
Imposing constraints:
 Iter   0:  RMS(Cart)=    0.0000000049 RMS(Int)=    0.0000000001
CONVERGED
done
Storing new coordinates                 .... done
Current trust radius                    ....     0.3000
Energy difference                       ....     1.2092 kcal/mol
Maximum difference                      ....     0.2700 kcal/mol
New trust radius                        ....     0.3000

                                .--------------------.
          ----------------------|Geometry convergence|-------------------------
          Item                value                   Tolerance       Converged
          ---------------------------------------------------------------------
          Energy change      -0.0019270179            0.0000050000      NO
          RMS gradient        0.0065564298            0.0001000000      NO
          MAX gradient        0.0157713667            0.0003000000      NO
          RMS step            0.0547379778            0.0020000000      NO
          MAX step            0.1614342702            0.0040000000      NO
          ........................................................
          Max(Bonds)      0.0000      Max(Angles)    3.32
          Max(Dihed)        9.25      Max(Improp)    0.00
          ---------------------------------------------------------------------

Geometry step timings:
Preparation and reading OPT file:      0.001 s ( 7.016 %)
Internal coordinates            :      0.000 s ( 0.156 %)
B/P matrices and projection     :      0.000 s ( 1.601 %)
Hessian update/contruction      :      0.003 s (40.940 %)
Making the step                 :      0.002 s (21.895 %)
Converting the step to Cartesian:      0.000 s ( 5.962 %)
Storing new data                :      0.000 s ( 3.502 %)
Checking convergence            :      0.000 s ( 0.039 %)
GOAT stuff                      :      0.000 s ( 0.000 %)
Final printing                  :      0.001 s (18.875 %)
Total time                      :      0.008 s

Time for energy+gradient        :      0.821 s
Time for complete geometry iter :      0.847 s

         *************************************************************
         *                GEOMETRY OPTIMIZATION CYCLE   6            *
         *************************************************************
------------------------------------------------------------------------------
                         ORCA GEOMETRY RELAXATION STEP
------------------------------------------------------------------------------

Reading the OPT-File                    .... done

---------------------------------------------
FINAL SINGLE POINT ENERGY        -1.446440599273
---------------------------------------------

Getting information on internals        .... done
Copying old internal coords+grads       .... done
Making the new internal coordinates     .... (2022 redundants) done
Validating the new internal coordinates .... (2022 redundants) done
Calculating the B-matrix                .... done
Calculating the G,G- and P matrices     .... done
Transforming gradient to internals      .... done
Projecting the internal gradient        .... done
Number of atoms                         ....   9
Number of internal coordinates          ....  30
Current Energy                          ....    -1.446440599 Eh
Current gradient norm                   ....     0.021836043 Eh/bohr
Maximum allowed component of the step   ....  0.300
Current trust radius                    ....  0.300
Updating the Hessian (BFGS)             .... done
Making uphill step                      .... done
Uphill step size                        .... 0.299777
Converting the step to Cartesian space:
 Initial RMS(Int)=    0.0547314773
Transforming coordinates:
 Iter   0:  RMS(Cart)=    0.0450835570 RMS(Int)=    0.0541108556
 Iter   5:  RMS(Cart)=    0.0000017588 RMS(Int)=    0.0000020523
Imposing constraints:
 Iter   0:  RMS(Cart)=    0.0000000042 RMS(Int)=    0.0000000000
CONVERGED
done
Storing new coordinates                 .... done
Current trust radius                    ....     0.3000
Energy difference                       ....     1.7643 kcal/mol
Maximum difference                      ....     0.2700 kcal/mol
New trust radius                        ....     0.3000

                                .--------------------.
          ----------------------|Geometry convergence|-------------------------
          Item                value                   Tolerance       Converged
          ---------------------------------------------------------------------
          Energy change      -0.0028116013            0.0000050000      NO
          RMS gradient        0.0029820808            0.0001000000      NO
          MAX gradient        0.0068167128            0.0003000000      NO
          RMS step            0.0547314773            0.0020000000      NO
          MAX step            0.1676236405            0.0040000000      NO
          ........................................................
          Max(Bonds)      0.0000      Max(Angles)    2.62
          Max(Dihed)        9.60      Max(Improp)    0.00
          ---------------------------------------------------------------------

Geometry step timings:
Preparation and reading OPT file:      0.001 s (12.899 %)
Internal coordinates            :      0.000 s ( 0.142 %)
B/P matrices and projection     :      0.000 s ( 1.525 %)
Hessian update/contruction      :      0.003 s (39.770 %)
Making the step                 :      0.002 s (19.646 %)
Converting the step to Cartesian:      0.001 s ( 6.760 %)
Storing new data                :      0.000 s ( 3.826 %)
Checking convergence            :      0.000 s ( 0.039 %)
GOAT stuff                      :      0.000 s ( 0.000 %)
Final printing                  :      0.001 s (15.355 %)
Total time                      :      0.008 s

Time for energy+gradient        :      0.760 s
Time for complete geometry iter :      0.803 s

         *************************************************************
         *                GEOMETRY OPTIMIZATION CYCLE   7            *
         *************************************************************
------------------------------------------------------------------------------
                         ORCA GEOMETRY RELAXATION STEP
------------------------------------------------------------------------------

Reading the OPT-File                    .... done

---------------------------------------------
FINAL SINGLE POINT ENERGY        -1.446922283661
---------------------------------------------

Getting information on internals        .... done
Copying old internal coords+grads       .... done
Making the new internal coordinates     .... (2022 redundants) done
Validating the new internal coordinates .... (2022 redundants) done
Calculating the B-matrix                .... done
Calculating the G,G- and P matrices     .... done
Transforming gradient to internals      .... done
Projecting the internal gradient        .... done
Number of atoms                         ....   9
Number of internal coordinates          ....  30
Current Energy                          ....    -1.446922284 Eh
Current gradient norm                   ....     0.010400966 Eh/bohr
Maximum allowed component of the step   ....  0.300
Current trust radius                    ....  0.300
Updating the Hessian (BFGS)             .... done
Making uphill step                      .... done
Uphill step size                        .... 0.299742
Converting the step to Cartesian space:
 Initial RMS(Int)=    0.0547252004
Transforming coordinates:
 Iter   0:  RMS(Cart)=    0.0480327930 RMS(Int)=    0.0543879223
 Iter   5:  RMS(Cart)=    0.0000019630 RMS(Int)=    0.0000022835
Imposing constraints:
 Iter   0:  RMS(Cart)=    0.0000000045 RMS(Int)=    0.0000000001
CONVERGED
done
Storing new coordinates                 .... done
Current trust radius                    ....     0.3000
Energy difference                       ....     0.3023 kcal/mol
Maximum difference                      ....     0.2700 kcal/mol
New trust radius                        ....     0.3000

                                .--------------------.
          ----------------------|Geometry convergence|-------------------------
          Item                value                   Tolerance       Converged
          ---------------------------------------------------------------------
          Energy change      -0.0004816844            0.0000050000      NO
          RMS gradient        0.0014073689            0.0001000000      NO
          MAX gradient        0.0037947596            0.0003000000      NO
          RMS step            0.0547252004            0.0020000000      NO
          MAX step            0.1635375747            0.0040000000      NO
          ........................................................
          Max(Bonds)      0.0000      Max(Angles)    1.07
          Max(Dihed)        9.37      Max(Improp)    0.00
          ---------------------------------------------------------------------

Geometry step timings:
Preparation and reading OPT file:      0.001 s (11.726 %)
Internal coordinates            :      0.000 s ( 0.154 %)
B/P matrices and projection     :      0.000 s ( 1.807 %)
Hessian update/contruction      :      0.002 s (29.511 %)
Making the step                 :      0.002 s (23.642 %)
Converting the step to Cartesian:      0.001 s (12.778 %)
Storing new data                :      0.000 s ( 3.047 %)
Checking convergence            :      0.000 s ( 0.071 %)
GOAT stuff                      :      0.000 s ( 0.000 %)
Final printing                  :      0.001 s (17.253 %)
Total time                      :      0.008 s

Time for energy+gradient        :      0.768 s
Time for complete geometry iter :      0.806 s

         *************************************************************
         *                GEOMETRY OPTIMIZATION CYCLE   8            *
         *************************************************************
------------------------------------------------------------------------------
                         ORCA GEOMETRY RELAXATION STEP
------------------------------------------------------------------------------

Reading the OPT-File                    .... done

---------------------------------------------
FINAL SINGLE POINT ENERGY        -1.446446627338
---------------------------------------------

Getting information on internals        .... done
Copying old internal coords+grads       .... done
Making the new internal coordinates     .... (2022 redundants) done
Validating the new internal coordinates .... (2022 redundants) done
Calculating the B-matrix                .... done
Calculating the G,G- and P matrices     .... done
Transforming gradient to internals      .... done
Projecting the internal gradient        .... done
Number of atoms                         ....   9
Number of internal coordinates          ....  30
Current Energy                          ....    -1.446446627 Eh
Current gradient norm                   ....     0.010688125 Eh/bohr
Maximum allowed component of the step   ....  0.300
Current trust radius                    ....  0.300
Updating the Hessian (BFGS)             .... done
Making uphill step                      .... done
Uphill step size                        .... 0.299720
Converting the step to Cartesian space:
 Initial RMS(Int)=    0.0547211386
Transforming coordinates:
 Iter   0:  RMS(Cart)=    0.0467336472 RMS(Int)=    0.0544680177
 Iter   5:  RMS(Cart)=    0.0000021496 RMS(Int)=    0.0000024994
Imposing constraints:
 Iter   0:  RMS(Cart)=    0.0000000050 RMS(Int)=    0.0000000001
CONVERGED
done
Storing new coordinates                 .... done
Current trust radius                    ....     0.3000
Energy difference                       ....     0.2985 kcal/mol
Maximum difference                      ....     0.2700 kcal/mol
New trust radius                        ....     0.3000

                                .--------------------.
          ----------------------|Geometry convergence|-------------------------
          Item                value                   Tolerance       Converged
          ---------------------------------------------------------------------
          Energy change       0.0004756563            0.0000050000      NO
          RMS gradient        0.0014200124            0.0001000000      NO
          MAX gradient        0.0043955820            0.0003000000      NO
          RMS step            0.0547211386            0.0020000000      NO
          MAX step            0.1642298079            0.0040000000      NO
          ........................................................
          Max(Bonds)      0.0000      Max(Angles)    0.76
          Max(Dihed)        9.41      Max(Improp)    0.00
          ---------------------------------------------------------------------

Geometry step timings:
Preparation and reading OPT file:      0.001 s (10.789 %)
Internal coordinates            :      0.000 s ( 0.104 %)
B/P matrices and projection     :      0.000 s ( 1.404 %)
Hessian update/contruction      :      0.003 s (37.146 %)
Making the step                 :      0.001 s (16.624 %)
Converting the step to Cartesian:      0.001 s (12.285 %)
Storing new data                :      0.000 s ( 3.376 %)
Checking convergence            :      0.000 s ( 0.035 %)
GOAT stuff                      :      0.000 s ( 0.012 %)
Final printing                  :      0.002 s (18.213 %)
Total time                      :      0.009 s

Time for energy+gradient        :      0.688 s
Time for complete geometry iter :      0.753 s

         *************************************************************
         *                GEOMETRY OPTIMIZATION CYCLE   9            *
         *************************************************************
------------------------------------------------------------------------------
                         ORCA GEOMETRY RELAXATION STEP
------------------------------------------------------------------------------

Reading the OPT-File                    .... done

---------------------------------------------
FINAL SINGLE POINT ENERGY        -1.446000550585
---------------------------------------------

Getting information on internals        .... done
Copying old internal coords+grads       .... done
Making the new internal coordinates     .... (2022 redundants) done
Validating the new internal coordinates .... (2022 redundants) done
Calculating the B-matrix                .... done
Calculating the G,G- and P matrices     .... done
Transforming gradient to internals      .... done
Projecting the internal gradient        .... done
Number of atoms                         ....   9
Number of internal coordinates          ....  30
Current Energy                          ....    -1.446000551 Eh
Current gradient norm                   ....     0.011854652 Eh/bohr
Maximum allowed component of the step   ....  0.300
Current trust radius                    ....  0.300
Updating the Hessian (BFGS)             .... done
Making uphill step                      .... done
Uphill step size                        .... 0.299768
Converting the step to Cartesian space:
 Initial RMS(Int)=    0.0547299151
Transforming coordinates:
 Iter   0:  RMS(Cart)=    0.0460045478 RMS(Int)=    0.0545939974
 Iter   5:  RMS(Cart)=    0.0000022972 RMS(Int)=    0.0000026531
Imposing constraints:
 Iter   0:  RMS(Cart)=    0.0000000052 RMS(Int)=    0.0000000000
CONVERGED
done
Storing new coordinates                 .... done
Current trust radius                    ....     0.3000
Energy difference                       ....     0.2799 kcal/mol
Maximum difference                      ....     0.2700 kcal/mol
New trust radius                        ....     0.3000

                                .--------------------.
          ----------------------|Geometry convergence|-------------------------
          Item                value                   Tolerance       Converged
          ---------------------------------------------------------------------
          Energy change       0.0004460768            0.0000050000      NO
          RMS gradient        0.0014931586            0.0001000000      NO
          MAX gradient        0.0050906436            0.0003000000      NO
          RMS step            0.0547299151            0.0020000000      NO
          MAX step            0.1675470716            0.0040000000      NO
          ........................................................
          Max(Bonds)      0.0000      Max(Angles)    1.61
          Max(Dihed)        9.60      Max(Improp)    0.00
          ---------------------------------------------------------------------

Geometry step timings:
Preparation and reading OPT file:      0.001 s (12.224 %)
Internal coordinates            :      0.000 s ( 0.107 %)
B/P matrices and projection     :      0.000 s ( 1.320 %)
Hessian update/contruction      :      0.003 s (38.751 %)
Making the step                 :      0.002 s (21.665 %)
Converting the step to Cartesian:      0.000 s ( 5.731 %)
Storing new data                :      0.000 s ( 4.863 %)
Checking convergence            :      0.000 s ( 0.036 %)
GOAT stuff                      :      0.000 s ( 0.012 %)
Final printing                  :      0.001 s (15.279 %)
Total time                      :      0.008 s

Time for energy+gradient        :      0.713 s
Time for complete geometry iter :      0.748 s

         *************************************************************
         *                GEOMETRY OPTIMIZATION CYCLE  10            *
         *************************************************************
------------------------------------------------------------------------------
                         ORCA GEOMETRY RELAXATION STEP
------------------------------------------------------------------------------

Reading the OPT-File                    .... done

---------------------------------------------
FINAL SINGLE POINT ENERGY        -1.445886437927
---------------------------------------------

Getting information on internals        .... done
Copying old internal coords+grads       .... done
Making the new internal coordinates     .... (2022 redundants) done
Validating the new internal coordinates .... (2022 redundants) done
Calculating the B-matrix                .... done
Calculating the G,G- and P matrices     .... done
Transforming gradient to internals      .... done
Projecting the internal gradient        .... done
Number of atoms                         ....   9
Number of internal coordinates          ....  30
Current Energy                          ....    -1.445886438 Eh
Current gradient norm                   ....     0.011966076 Eh/bohr
Maximum allowed component of the step   ....  0.300
Current trust radius                    ....  0.300
Updating the Hessian (BFGS)             .... done
Making uphill step                      .... done
Uphill step size                        .... 0.299789
Converting the step to Cartesian space:
 Initial RMS(Int)=    0.0547337565
Transforming coordinates:
 Iter   0:  RMS(Cart)=    0.0437563119 RMS(Int)=    0.0545432380
 Iter   5:  RMS(Cart)=    0.0000023452 RMS(Int)=    0.0000027127
Imposing constraints:
 Iter   0:  RMS(Cart)=    0.0000000056 RMS(Int)=    0.0000000000
CONVERGED
done
Storing new coordinates                 .... done
Current trust radius                    ....     0.3000
Energy difference                       ....     0.0716 kcal/mol
Maximum difference                      ....     0.2700 kcal/mol
New trust radius                        ....     0.4500

                                .--------------------.
          ----------------------|Geometry convergence|-------------------------
          Item                value                   Tolerance       Converged
          ---------------------------------------------------------------------
          Energy change       0.0001141127            0.0000050000      NO
          RMS gradient        0.0016121727            0.0001000000      NO
          MAX gradient        0.0059176014            0.0003000000      NO
          RMS step            0.0547337565            0.0020000000      NO
          MAX step            0.1686462735            0.0040000000      NO
          ........................................................
          Max(Bonds)      0.0000      Max(Angles)    2.05
          Max(Dihed)        9.66      Max(Improp)    0.00
          ---------------------------------------------------------------------

Geometry step timings:
Preparation and reading OPT file:      0.001 s ( 5.109 %)
Internal coordinates            :      0.000 s ( 0.075 %)
B/P matrices and projection     :      0.000 s ( 0.861 %)
Hessian update/contruction      :      0.003 s (16.974 %)
Making the step                 :      0.001 s ( 9.629 %)
Converting the step to Cartesian:      0.001 s ( 5.929 %)
Storing new data                :      0.000 s ( 2.290 %)
Checking convergence            :      0.000 s ( 0.027 %)
GOAT stuff                      :      0.000 s ( 0.000 %)
Final printing                  :      0.009 s (59.100 %)
Total time                      :      0.015 s

Time for energy+gradient        :      0.699 s
Time for complete geometry iter :      0.731 s

         *************************************************************
         *                GEOMETRY OPTIMIZATION CYCLE  11            *
         *************************************************************
------------------------------------------------------------------------------
                         ORCA GEOMETRY RELAXATION STEP
------------------------------------------------------------------------------

Reading the OPT-File                    .... done

---------------------------------------------
FINAL SINGLE POINT ENERGY        -1.445447370552
---------------------------------------------

Getting information on internals        .... done
Copying old internal coords+grads       .... done
Making the new internal coordinates     .... (2022 redundants) done
Validating the new internal coordinates .... (2022 redundants) done
Calculating the B-matrix                .... done
Calculating the G,G- and P matrices     .... done
Transforming gradient to internals      .... done
Projecting the internal gradient        .... done
Number of atoms                         ....   9
Number of internal coordinates          ....  30
Current Energy                          ....    -1.445447371 Eh
Current gradient norm                   ....     0.012813011 Eh/bohr
Maximum allowed component of the step   ....  0.300
Current trust radius                    ....  0.450
Updating the Hessian (BFGS)             .... done
Making uphill step                      .... done
Uphill step size                        .... 0.449885
Converting the step to Cartesian space:
 Initial RMS(Int)=    0.0821373622
Transforming coordinates:
 Iter   0:  RMS(Cart)=    0.0630674339 RMS(Int)=    0.0811685501
 Iter   5:  RMS(Cart)=    0.0000272399 RMS(Int)=    0.0000334827
Imposing constraints:
 Iter   0:  RMS(Cart)=    0.0000000218 RMS(Int)=    0.0000000005
CONVERGED
done
Storing new coordinates                 .... done
Current trust radius                    ....     0.4500
Energy difference                       ....     0.2755 kcal/mol
Maximum difference                      ....     0.2700 kcal/mol
New trust radius                        ....     0.3000

                                .--------------------.
          ----------------------|Geometry convergence|-------------------------
          Item                value                   Tolerance       Converged
          ---------------------------------------------------------------------
          Energy change       0.0004390674            0.0000050000      NO
          RMS gradient        0.0019869059            0.0001000000      NO
          MAX gradient        0.0062108207            0.0003000000      NO
          RMS step            0.0821373622            0.0020000000      NO
          MAX step            0.2512582478            0.0040000000      NO
          ........................................................
          Max(Bonds)      0.0000      Max(Angles)    1.71
          Max(Dihed)       14.40      Max(Improp)    0.00
          ---------------------------------------------------------------------

Geometry step timings:
Preparation and reading OPT file:      0.000 s ( 7.254 %)
Internal coordinates            :      0.000 s ( 0.211 %)
B/P matrices and projection     :      0.000 s ( 2.111 %)
Hessian update/contruction      :      0.003 s (43.086 %)
Making the step                 :      0.001 s (20.178 %)
Converting the step to Cartesian:      0.000 s ( 6.847 %)
Storing new data                :      0.000 s ( 5.399 %)
Checking convergence            :      0.000 s ( 0.045 %)
GOAT stuff                      :      0.000 s ( 0.015 %)
Final printing                  :      0.001 s (14.839 %)
Total time                      :      0.007 s

Time for energy+gradient        :      0.696 s
Time for complete geometry iter :      0.727 s

         *************************************************************
         *                GEOMETRY OPTIMIZATION CYCLE  12            *
         *************************************************************
------------------------------------------------------------------------------
                         ORCA GEOMETRY RELAXATION STEP
------------------------------------------------------------------------------

Reading the OPT-File                    .... done

---------------------------------------------
FINAL SINGLE POINT ENERGY        -1.445006340551
---------------------------------------------

Getting information on internals        .... done
Copying old internal coords+grads       .... done
Making the new internal coordinates     .... (2022 redundants) done
Validating the new internal coordinates .... (2022 redundants) done
Calculating the B-matrix                .... done
Calculating the G,G- and P matrices     .... done
Transforming gradient to internals      .... done
Projecting the internal gradient        .... done
Number of atoms                         ....   9
Number of internal coordinates          ....  30
Current Energy                          ....    -1.445006341 Eh
Current gradient norm                   ....     0.015497737 Eh/bohr
Maximum allowed component of the step   ....  0.300
Current trust radius                    ....  0.300
Updating the Hessian (BFGS)             .... done
Making uphill step                      .... done
Uphill step size                        .... 0.125877
Converting the step to Cartesian space:
 Initial RMS(Int)=    0.0229818318
Transforming coordinates:
 Iter   0:  RMS(Cart)=    0.0218794440 RMS(Int)=    0.0229143029
Imposing constraints:
 Iter   0:  RMS(Cart)=    0.0000000026 RMS(Int)=    0.0000000000
CONVERGED
done
Storing new coordinates                 .... done
Current trust radius                    ....     0.3000
Energy difference                       ....     0.2768 kcal/mol
Maximum difference                      ....     0.2700 kcal/mol
New trust radius                        ....     0.3000

                                .--------------------.
          ----------------------|Geometry convergence|-------------------------
          Item                value                   Tolerance       Converged
          ---------------------------------------------------------------------
          Energy change       0.0004410300            0.0000050000      NO
          RMS gradient        0.0026216231            0.0001000000      NO
          MAX gradient        0.0059464498            0.0003000000      NO
          RMS step            0.0229818318            0.0020000000      NO
          MAX step            0.0629049558            0.0040000000      NO
          ........................................................
          Max(Bonds)      0.0000      Max(Angles)    1.97
          Max(Dihed)        3.60      Max(Improp)    0.00
          ---------------------------------------------------------------------

Geometry step timings:
Preparation and reading OPT file:      0.000 s ( 6.484 %)
Internal coordinates            :      0.000 s ( 0.186 %)
B/P matrices and projection     :      0.000 s ( 1.856 %)
Hessian update/contruction      :      0.003 s (36.171 %)
Making the step                 :      0.002 s (20.618 %)
Converting the step to Cartesian:      0.001 s (13.259 %)
Storing new data                :      0.000 s ( 4.667 %)
Checking convergence            :      0.000 s ( 0.080 %)
GOAT stuff                      :      0.000 s ( 0.000 %)
Final printing                  :      0.001 s (16.627 %)
Total time                      :      0.008 s

Time for energy+gradient        :      0.676 s
Time for complete geometry iter :      0.713 s

         *************************************************************
         *                GEOMETRY OPTIMIZATION CYCLE  13            *
         *************************************************************
------------------------------------------------------------------------------
                         ORCA GEOMETRY RELAXATION STEP
------------------------------------------------------------------------------

Reading the OPT-File                    .... done

---------------------------------------------
FINAL SINGLE POINT ENERGY        -1.445030312620
---------------------------------------------

Getting information on internals        .... done
Copying old internal coords+grads       .... done
Making the new internal coordinates     .... (2022 redundants) done
Validating the new internal coordinates .... (2022 redundants) done
Calculating the B-matrix                .... done
Calculating the G,G- and P matrices     .... done
Transforming gradient to internals      .... done
Projecting the internal gradient        .... done
Number of atoms                         ....   9
Number of internal coordinates          ....  30
Current Energy                          ....    -1.445030313 Eh
Current gradient norm                   ....     0.017081628 Eh/bohr
Maximum allowed component of the step   ....  0.300
Current trust radius                    ....  0.300
Updating the Hessian (BFGS)             .... done
Making uphill step                      .... done
Uphill step size                        .... 0.230772
Converting the step to Cartesian space:
 Initial RMS(Int)=    0.0421329318
Transforming coordinates:
 Iter   0:  RMS(Cart)=    0.0316641631 RMS(Int)=    0.0420132329
 Iter   5:  RMS(Cart)=    0.0000004383 RMS(Int)=    0.0000004718
Imposing constraints:
 Iter   0:  RMS(Cart)=    0.0000000054 RMS(Int)=    0.0000000000
CONVERGED
done
Storing new coordinates                 .... done
Current trust radius                    ....     0.3000
Energy difference                       ....     0.0150 kcal/mol
Maximum difference                      ....     0.2700 kcal/mol
New trust radius                        ....     0.4500

                                .--------------------.
          ----------------------|Geometry convergence|-------------------------
          Item                value                   Tolerance       Converged
          ---------------------------------------------------------------------
          Energy change      -0.0000239721            0.0000050000      NO
          RMS gradient        0.0025991728            0.0001000000      NO
          MAX gradient        0.0057389628            0.0003000000      NO
          RMS step            0.0421329318            0.0020000000      NO
          MAX step            0.1237919373            0.0040000000      NO
          ........................................................
          Max(Bonds)      0.0000      Max(Angles)    0.88
          Max(Dihed)        7.09      Max(Improp)    0.00
          ---------------------------------------------------------------------

Geometry step timings:
Preparation and reading OPT file:      0.001 s (11.929 %)
Internal coordinates            :      0.000 s ( 0.186 %)
B/P matrices and projection     :      0.000 s ( 1.931 %)
Hessian update/contruction      :      0.003 s (38.291 %)
Making the step                 :      0.002 s (20.703 %)
Converting the step to Cartesian:      0.001 s ( 7.283 %)
Storing new data                :      0.000 s ( 4.354 %)
Checking convergence            :      0.000 s ( 0.067 %)
GOAT stuff                      :      0.000 s ( 0.013 %)
Final printing                  :      0.001 s (15.231 %)
Total time                      :      0.008 s

Time for energy+gradient        :      0.698 s
Time for complete geometry iter :      0.732 s

         *************************************************************
         *                GEOMETRY OPTIMIZATION CYCLE  14            *
         *************************************************************
------------------------------------------------------------------------------
                         ORCA GEOMETRY RELAXATION STEP
------------------------------------------------------------------------------

Reading the OPT-File                    .... done

---------------------------------------------
FINAL SINGLE POINT ENERGY        -1.444829844438
---------------------------------------------

Getting information on internals        .... done
Copying old internal coords+grads       .... done
Making the new internal coordinates     .... (2022 redundants) done
Validating the new internal coordinates .... (2022 redundants) done
Calculating the B-matrix                .... done
Calculating the G,G- and P matrices     .... done
Transforming gradient to internals      .... done
Projecting the internal gradient        .... done
Number of atoms                         ....   9
Number of internal coordinates          ....  30
Current Energy                          ....    -1.444829844 Eh
Current gradient norm                   ....     0.018767862 Eh/bohr
Maximum allowed component of the step   ....  0.300
Current trust radius                    ....  0.450
Updating the Hessian (BFGS)             .... done
Making uphill step                      .... done
Uphill step size                        .... 0.367127
Converting the step to Cartesian space:
 Initial RMS(Int)=    0.0670278408
Transforming coordinates:
 Iter   0:  RMS(Cart)=    0.0569524816 RMS(Int)=    0.0664991781
 Iter   5:  RMS(Cart)=    0.0000038471 RMS(Int)=    0.0000042039
Imposing constraints:
 Iter   0:  RMS(Cart)=    0.0000000019 RMS(Int)=    0.0000000000
CONVERGED
done
Storing new coordinates                 .... done
Current trust radius                    ....     0.4500
Energy difference                       ....     0.1258 kcal/mol
Maximum difference                      ....     0.2700 kcal/mol
New trust radius                        ....     0.6750

                                .--------------------.
          ----------------------|Geometry convergence|-------------------------
          Item                value                   Tolerance       Converged
          ---------------------------------------------------------------------
          Energy change       0.0002004682            0.0000050000      NO
          RMS gradient        0.0029173138            0.0001000000      NO
          MAX gradient        0.0068670177            0.0003000000      NO
          RMS step            0.0670278408            0.0020000000      NO
          MAX step            0.1963872126            0.0040000000      NO
          ........................................................
          Max(Bonds)      0.0000      Max(Angles)    6.77
          Max(Dihed)       11.25      Max(Improp)    0.00
          ---------------------------------------------------------------------

Geometry step timings:
Preparation and reading OPT file:      0.001 s (11.751 %)
Internal coordinates            :      0.000 s ( 0.140 %)
B/P matrices and projection     :      0.000 s ( 1.701 %)
Hessian update/contruction      :      0.002 s (36.127 %)
Making the step                 :      0.001 s (19.429 %)
Converting the step to Cartesian:      0.001 s ( 8.552 %)
Storing new data                :      0.000 s ( 4.042 %)
Checking convergence            :      0.000 s ( 0.047 %)
GOAT stuff                      :      0.000 s ( 0.016 %)
Final printing                  :      0.001 s (18.165 %)
Total time                      :      0.006 s

Time for energy+gradient        :      0.686 s
Time for complete geometry iter :      0.728 s

         *************************************************************
         *                GEOMETRY OPTIMIZATION CYCLE  15            *
         *************************************************************
------------------------------------------------------------------------------
                         ORCA GEOMETRY RELAXATION STEP
------------------------------------------------------------------------------

Reading the OPT-File                    .... done

---------------------------------------------
FINAL SINGLE POINT ENERGY        -1.445020219117
---------------------------------------------

Getting information on internals        .... done
Copying old internal coords+grads       .... done
Making the new internal coordinates     .... (2022 redundants) done
Validating the new internal coordinates .... (2022 redundants) done
Calculating the B-matrix                .... done
Calculating the G,G- and P matrices     .... done
Transforming gradient to internals      .... done
Projecting the internal gradient        .... done
Number of atoms                         ....   9
Number of internal coordinates          ....  30
Current Energy                          ....    -1.445020219 Eh
Current gradient norm                   ....     0.016958796 Eh/bohr
Maximum allowed component of the step   ....  0.300
Current trust radius                    ....  0.675
Updating the Hessian (BFGS)             .... done
Making uphill step                      .... done
Uphill step size                        .... 0.392601
Converting the step to Cartesian space:
 Initial RMS(Int)=    0.0716787492
Transforming coordinates:
 Iter   0:  RMS(Cart)=    0.0564701730 RMS(Int)=    0.0709791286
 Iter   5:  RMS(Cart)=    0.0000108552 RMS(Int)=    0.0000128758
Imposing constraints:
 Iter   0:  RMS(Cart)=    0.0000000038 RMS(Int)=    0.0000000001
CONVERGED
done
Storing new coordinates                 .... done
Current trust radius                    ....     0.6750
Energy difference                       ....     0.1195 kcal/mol
Maximum difference                      ....     0.2700 kcal/mol
New trust radius                        ....     0.7000

                                .--------------------.
          ----------------------|Geometry convergence|-------------------------
          Item                value                   Tolerance       Converged
          ---------------------------------------------------------------------
          Energy change      -0.0001903747            0.0000050000      NO
          RMS gradient        0.0025998388            0.0001000000      NO
          MAX gradient        0.0056266878            0.0003000000      NO
          RMS step            0.0716787492            0.0020000000      NO
          MAX step            0.2255676671            0.0040000000      NO
          ........................................................
          Max(Bonds)      0.0000      Max(Angles)    4.05
          Max(Dihed)       12.92      Max(Improp)    0.00
          ---------------------------------------------------------------------

Geometry step timings:
Preparation and reading OPT file:      0.000 s ( 7.207 %)
Internal coordinates            :      0.000 s ( 0.155 %)
B/P matrices and projection     :      0.000 s ( 1.798 %)
Hessian update/contruction      :      0.003 s (45.428 %)
Making the step                 :      0.001 s (17.948 %)
Converting the step to Cartesian:      0.000 s ( 7.548 %)
Storing new data                :      0.000 s ( 3.999 %)
Checking convergence            :      0.000 s ( 0.062 %)
GOAT stuff                      :      0.000 s ( 0.000 %)
Final printing                  :      0.001 s (15.840 %)
Total time                      :      0.006 s

Time for energy+gradient        :      0.698 s
Time for complete geometry iter :      0.727 s

         *************************************************************
         *                GEOMETRY OPTIMIZATION CYCLE  16            *
         *************************************************************
------------------------------------------------------------------------------
                         ORCA GEOMETRY RELAXATION STEP
------------------------------------------------------------------------------

Reading the OPT-File                    .... done

---------------------------------------------
FINAL SINGLE POINT ENERGY        -1.444905826085
---------------------------------------------

Getting information on internals        .... done
Copying old internal coords+grads       .... done
Making the new internal coordinates     .... (2022 redundants) done
Validating the new internal coordinates .... (2022 redundants) done
Calculating the B-matrix                .... done
Calculating the G,G- and P matrices     .... done
Transforming gradient to internals      .... done
Projecting the internal gradient        .... done
Number of atoms                         ....   9
Number of internal coordinates          ....  30
Current Energy                          ....    -1.444905826 Eh
Current gradient norm                   ....     0.019112392 Eh/bohr
Maximum allowed component of the step   ....  0.300
Current trust radius                    ....  0.700
Updating the Hessian (BFGS)             .... done
Making uphill step                      .... done
Uphill step size                        .... 0.109410
Converting the step to Cartesian space:
 Initial RMS(Int)=    0.0199754242
Transforming coordinates:
 Iter   0:  RMS(Cart)=    0.0222938087 RMS(Int)=    0.0199379062
Imposing constraints:
 Iter   0:  RMS(Cart)=    0.0000000005 RMS(Int)=    0.0000000000
CONVERGED
done
Storing new coordinates                 .... done
Current trust radius                    ....     0.7000
Energy difference                       ....     0.0718 kcal/mol
Maximum difference                      ....     0.2700 kcal/mol
New trust radius                        ....     0.7000

                                .--------------------.
          ----------------------|Geometry convergence|-------------------------
          Item                value                   Tolerance       Converged
          ---------------------------------------------------------------------
          Energy change       0.0001143930            0.0000050000      NO
          RMS gradient        0.0028331948            0.0001000000      NO
          MAX gradient        0.0067192344            0.0003000000      NO
          RMS step            0.0199754242            0.0020000000      NO
          MAX step            0.0483378512            0.0040000000      NO
          ........................................................
          Max(Bonds)      0.0000      Max(Angles)    1.58
          Max(Dihed)        2.77      Max(Improp)    0.00
          ---------------------------------------------------------------------

Geometry step timings:
Preparation and reading OPT file:      0.000 s ( 2.601 %)
Internal coordinates            :      0.000 s ( 0.044 %)
B/P matrices and projection     :      0.000 s ( 0.606 %)
Hessian update/contruction      :      0.003 s (14.690 %)
Making the step                 :      0.013 s (71.914 %)
Converting the step to Cartesian:      0.000 s ( 2.254 %)
Storing new data                :      0.000 s ( 1.543 %)
Checking convergence            :      0.000 s ( 0.022 %)
GOAT stuff                      :      0.000 s ( 0.000 %)
Final printing                  :      0.001 s ( 6.320 %)
Total time                      :      0.018 s

Time for energy+gradient        :      0.721 s
Time for complete geometry iter :      0.755 s

         *************************************************************
         *                GEOMETRY OPTIMIZATION CYCLE  17            *
         *************************************************************
------------------------------------------------------------------------------
                         ORCA GEOMETRY RELAXATION STEP
------------------------------------------------------------------------------

Reading the OPT-File                    .... done

---------------------------------------------
FINAL SINGLE POINT ENERGY        -1.444972415166
---------------------------------------------

Getting information on internals        .... done
Copying old internal coords+grads       .... done
Making the new internal coordinates     .... (2022 redundants) done
Validating the new internal coordinates .... (2022 redundants) done
Calculating the B-matrix                .... done
Calculating the G,G- and P matrices     .... done
Transforming gradient to internals      .... done
Projecting the internal gradient        .... done
Number of atoms                         ....   9
Number of internal coordinates          ....  30
Current Energy                          ....    -1.444972415 Eh
Current gradient norm                   ....     0.018395125 Eh/bohr
Maximum allowed component of the step   ....  0.300
Current trust radius                    ....  0.700
Updating the Hessian (BFGS)             .... done
Making uphill step                      .... done
Uphill step size                        .... 0.316353
Converting the step to Cartesian space:
 Initial RMS(Int)=    0.0577578022
Transforming coordinates:
 Iter   0:  RMS(Cart)=    0.0607218372 RMS(Int)=    0.0575293838
 Iter   5:  RMS(Cart)=    0.0000001880 RMS(Int)=    0.0000001981
Imposing constraints:
 Iter   0:  RMS(Cart)=    0.0000000017 RMS(Int)=    0.0000000000
CONVERGED
done
Storing new coordinates                 .... done
Current trust radius                    ....     0.7000
Energy difference                       ....     0.0418 kcal/mol
Maximum difference                      ....     0.2700 kcal/mol
New trust radius                        ....     0.7000

                                .--------------------.
          ----------------------|Geometry convergence|-------------------------
          Item                value                   Tolerance       Converged
          ---------------------------------------------------------------------
          Energy change      -0.0000665891            0.0000050000      NO
          RMS gradient        0.0026802962            0.0001000000      NO
          MAX gradient        0.0062016642            0.0003000000      NO
          RMS step            0.0577578022            0.0020000000      NO
          MAX step            0.1349361317            0.0040000000      NO
          ........................................................
          Max(Bonds)      0.0000      Max(Angles)    2.19
          Max(Dihed)        7.73      Max(Improp)    0.00
          ---------------------------------------------------------------------

Geometry step timings:
Preparation and reading OPT file:      0.001 s (11.022 %)
Internal coordinates            :      0.000 s ( 0.118 %)
B/P matrices and projection     :      0.000 s ( 1.373 %)
Hessian update/contruction      :      0.003 s (39.706 %)
Making the step                 :      0.002 s (20.611 %)
Converting the step to Cartesian:      0.000 s ( 5.315 %)
Storing new data                :      0.000 s ( 3.812 %)
Checking convergence            :      0.000 s ( 0.047 %)
GOAT stuff                      :      0.000 s ( 0.000 %)
Final printing                  :      0.002 s (17.983 %)
Total time                      :      0.008 s

Time for energy+gradient        :      0.735 s
Time for complete geometry iter :      1.080 s

         *************************************************************
         *                GEOMETRY OPTIMIZATION CYCLE  18            *
         *************************************************************
------------------------------------------------------------------------------
                         ORCA GEOMETRY RELAXATION STEP
------------------------------------------------------------------------------

Reading the OPT-File                    .... done

---------------------------------------------
FINAL SINGLE POINT ENERGY        -1.445180874038
---------------------------------------------

Getting information on internals        .... done
Copying old internal coords+grads       .... done
Making the new internal coordinates     .... (2022 redundants) done
Validating the new internal coordinates .... (2022 redundants) done
Calculating the B-matrix                .... done
Calculating the G,G- and P matrices     .... done
Transforming gradient to internals      .... done
Projecting the internal gradient        .... done
Number of atoms                         ....   9
Number of internal coordinates          ....  30
Current Energy                          ....    -1.445180874 Eh
Current gradient norm                   ....     0.016238942 Eh/bohr
Maximum allowed component of the step   ....  0.300
Current trust radius                    ....  0.700
Updating the Hessian (BFGS)             .... done
Making uphill step                      .... done
Uphill step size                        .... 0.359573
Converting the step to Cartesian space:
 Initial RMS(Int)=    0.0656487775
Transforming coordinates:
 Iter   0:  RMS(Cart)=    0.0635657619 RMS(Int)=    0.0655483604
 Iter   5:  RMS(Cart)=    0.0000001014 RMS(Int)=    0.0000000993
Imposing constraints:
 Iter   0:  RMS(Cart)=    0.0000000005 RMS(Int)=    0.0000000000
CONVERGED
done
Storing new coordinates                 .... done
Current trust radius                    ....     0.7000
Energy difference                       ....     0.1308 kcal/mol
Maximum difference                      ....     0.2700 kcal/mol
New trust radius                        ....     0.7000

                                .--------------------.
          ----------------------|Geometry convergence|-------------------------
          Item                value                   Tolerance       Converged
          ---------------------------------------------------------------------
          Energy change      -0.0002084589            0.0000050000      NO
          RMS gradient        0.0023672313            0.0001000000      NO
          MAX gradient        0.0048753575            0.0003000000      NO
          RMS step            0.0656487775            0.0020000000      NO
          MAX step            0.1637140338            0.0040000000      NO
          ........................................................
          Max(Bonds)      0.0000      Max(Angles)    1.54
          Max(Dihed)        9.38      Max(Improp)    0.00
          ---------------------------------------------------------------------

Geometry step timings:
Preparation and reading OPT file:      0.001 s (11.710 %)
Internal coordinates            :      0.000 s ( 0.178 %)
B/P matrices and projection     :      0.000 s ( 1.969 %)
Hessian update/contruction      :      0.003 s (39.571 %)
Making the step                 :      0.001 s (18.786 %)
Converting the step to Cartesian:      0.001 s ( 7.935 %)
Storing new data                :      0.000 s ( 4.944 %)
Checking convergence            :      0.000 s ( 0.059 %)
GOAT stuff                      :      0.000 s ( 0.000 %)
Final printing                  :      0.001 s (14.819 %)
Total time                      :      0.007 s

Time for energy+gradient        :      0.742 s
Time for complete geometry iter :      0.779 s

         *************************************************************
         *                GEOMETRY OPTIMIZATION CYCLE  19            *
         *************************************************************
------------------------------------------------------------------------------
                         ORCA GEOMETRY RELAXATION STEP
------------------------------------------------------------------------------

Reading the OPT-File                    .... done

---------------------------------------------
FINAL SINGLE POINT ENERGY        -1.445770082269
---------------------------------------------

Getting information on internals        .... done
Copying old internal coords+grads       .... done
Making the new internal coordinates     .... (2022 redundants) done
Validating the new internal coordinates .... (2022 redundants) done
Calculating the B-matrix                .... done
Calculating the G,G- and P matrices     .... done
Transforming gradient to internals      .... done
Projecting the internal gradient        .... done
Number of atoms                         ....   9
Number of internal coordinates          ....  30
Current Energy                          ....    -1.445770082 Eh
Current gradient norm                   ....     0.011237910 Eh/bohr
Maximum allowed component of the step   ....  0.300
Current trust radius                    ....  0.700
Updating the Hessian (BFGS)             .... done
Making uphill step                      .... done
Uphill step size                        .... 0.530727
Stopped uphill after  18 steps          .... angle > 90
Converting the step to Cartesian space:
 Initial RMS(Int)=    0.0968970971
Transforming coordinates:
 Iter   0:  RMS(Cart)=    0.0720625848 RMS(Int)=    1.1471796521
 Iter   5:  RMS(Cart)=    0.0000814608 RMS(Int)=    0.0000946032
 Iter  10:  RMS(Cart)=    0.0000001655 RMS(Int)=    0.0000001692
Imposing constraints:
 Iter   0:  RMS(Cart)=    0.0000000124 RMS(Int)=    0.0000000004
CONVERGED
done
Storing new coordinates                 .... done
The predicted energy change is          ....     0.006199393
Previously predicted energy change      ....    -0.000401219
Actually observed energy change         ....    -0.000589208
Ratio of predicted to observed change   ....     1.468544974
New trust radius                        ....     0.700000000

                                .--------------------.
          ----------------------|Geometry convergence|-------------------------
          Item                value                   Tolerance       Converged
          ---------------------------------------------------------------------
          Energy change      -0.0005892082            0.0000050000      NO
          RMS gradient        0.0017919018            0.0001000000      NO
          MAX gradient        0.0053686669            0.0003000000      NO
          RMS step            0.0968970971            0.0020000000      NO
          MAX step            0.3000000000            0.0040000000      NO
          ........................................................
          Max(Bonds)      0.0000      Max(Angles)    2.92
          Max(Dihed)       17.19      Max(Improp)    0.00
          ---------------------------------------------------------------------

Geometry step timings:
Preparation and reading OPT file:      0.001 s ( 6.527 %)
Internal coordinates            :      0.000 s ( 0.082 %)
B/P matrices and projection     :      0.000 s ( 0.932 %)
Hessian update/contruction      :      0.011 s (69.699 %)
Making the step                 :      0.001 s ( 8.823 %)
Converting the step to Cartesian:      0.001 s ( 5.068 %)
Storing new data                :      0.000 s ( 1.789 %)
Checking convergence            :      0.000 s ( 0.032 %)
GOAT stuff                      :      0.000 s ( 0.000 %)
Final printing                  :      0.001 s ( 7.028 %)
Total time                      :      0.016 s

Time for energy+gradient        :      0.807 s
Time for complete geometry iter :      0.900 s

         *************************************************************
         *                GEOMETRY OPTIMIZATION CYCLE  20            *
         *************************************************************
------------------------------------------------------------------------------
                         ORCA GEOMETRY RELAXATION STEP
------------------------------------------------------------------------------

Reading the OPT-File                    .... done

---------------------------------------------
FINAL SINGLE POINT ENERGY        -1.446052139600
---------------------------------------------

Getting information on internals        .... done
Copying old internal coords+grads       .... done
Making the new internal coordinates     .... (2022 redundants) done
Validating the new internal coordinates .... (2022 redundants) done
Calculating the B-matrix                .... done
Calculating the G,G- and P matrices     .... done
Transforming gradient to internals      .... done
Projecting the internal gradient        .... done
Number of atoms                         ....   9
Number of internal coordinates          ....  30
Current Energy                          ....    -1.446052140 Eh
Current gradient norm                   ....     0.011127473 Eh/bohr
Maximum allowed component of the step   ....  0.300
Current trust radius                    ....  0.300
Evaluating the initial hessian          ....  (Almloef) done
Projecting the Hessian                  .... done
Forming the augmented Hessian           .... done
Diagonalizing the augmented Hessian     .... done
Last element of RFO vector              ....  0.999693715
Lowest eigenvalues of augmented Hessian:
 -0.000198009  0.012721809  0.021299471  0.108779625  0.128055045
Length of the computed step             ....  0.024755849
The final length of the internal step   ....  0.024755849
Converting the step to Cartesian space:
 Initial RMS(Int)=    0.0045197791
Transforming coordinates:
 Iter   0:  RMS(Cart)=    0.0064522571 RMS(Int)=    1.1468959452
done
Storing new coordinates                 .... done
[...]
Converting the step to Cartesian:      0.001 s ( 6.883 %)
Storing new data                :      0.000 s ( 3.702 %)
Checking convergence            :      0.000 s ( 0.071 %)
GOAT stuff                      :      0.000 s ( 0.000 %)
Final printing                  :      0.001 s (14.845 %)
Total time                      :      0.008 s

Time for energy+gradient        :      0.809 s
Time for complete geometry iter :      0.896 s

         *************************************************************
         *                GEOMETRY OPTIMIZATION CYCLE 698            *
         *************************************************************
------------------------------------------------------------------------------
                         ORCA GEOMETRY RELAXATION STEP
------------------------------------------------------------------------------

Reading the OPT-File                    .... done

---------------------------------------------
FINAL SINGLE POINT ENERGY        -1.444091196289
---------------------------------------------

Getting information on internals        .... done
Copying old internal coords+grads       .... done
Making the new internal coordinates     .... (2022 redundants) done
Validating the new internal coordinates .... (2022 redundants) done
Calculating the B-matrix                .... done
Calculating the G,G- and P matrices     .... done
Transforming gradient to internals      .... done
Projecting the internal gradient        .... done
Number of atoms                         ....   9
Number of internal coordinates          ....  30
Current Energy                          ....    -1.444091196 Eh
Current gradient norm                   ....     0.015162673 Eh/bohr
Maximum allowed component of the step   ....  0.300
Current trust radius                    ....  0.450
Updating the Hessian (BFGS)             .... done
Making uphill step                      .... done
Uphill step size                        .... 0.449793
Converting the step to Cartesian space:
 Initial RMS(Int)=    0.0821205371
Transforming coordinates:
 Iter   0:  RMS(Cart)=    0.0803506780 RMS(Int)=    0.0811257641
 Iter   5:  RMS(Cart)=    0.0000033583 RMS(Int)=    0.0000039482
Imposing constraints:
 Iter   0:  RMS(Cart)=    0.0000000109 RMS(Int)=    0.0000000001
CONVERGED
done
Storing new coordinates                 .... done
Current trust radius                    ....     0.4500
Energy difference                       ....     1.3005 kcal/mol
Maximum difference                      ....     0.2700 kcal/mol
New trust radius                        ....     0.3000

                                .--------------------.
          ----------------------|Geometry convergence|-------------------------
          Item                value                   Tolerance       Converged
          ---------------------------------------------------------------------
          Energy change      -0.0020725326            0.0000050000      NO
          RMS gradient        0.0038234656            0.0001000000      NO
          MAX gradient        0.0108427334            0.0003000000      NO
          RMS step            0.0821205371            0.0020000000      NO
          MAX step            0.1774131448            0.0040000000      NO
          ........................................................
          Max(Bonds)      0.0000      Max(Angles)    4.33
          Max(Dihed)       10.17      Max(Improp)    0.00
          ---------------------------------------------------------------------

Geometry step timings:
Preparation and reading OPT file:      0.001 s (13.271 %)
Internal coordinates            :      0.000 s ( 0.111 %)
B/P matrices and projection     :      0.000 s ( 1.133 %)
Hessian update/contruction      :      0.004 s (47.310 %)
Making the step                 :      0.001 s (14.724 %)
Converting the step to Cartesian:      0.001 s ( 6.931 %)
Storing new data                :      0.000 s ( 4.456 %)
Checking convergence            :      0.000 s ( 0.037 %)
GOAT stuff                      :      0.000 s ( 0.000 %)
Final printing                  :      0.001 s (12.015 %)
Total time                      :      0.008 s

Time for energy+gradient        :      0.640 s
Time for complete geometry iter :      0.665 s

         *************************************************************
         *                GEOMETRY OPTIMIZATION CYCLE 699            *
         *************************************************************
------------------------------------------------------------------------------
                         ORCA GEOMETRY RELAXATION STEP
------------------------------------------------------------------------------

Reading the OPT-File                    .... done

---------------------------------------------
FINAL SINGLE POINT ENERGY        -1.444990359171
---------------------------------------------

Getting information on internals        .... done
Copying old internal coords+grads       .... done
Making the new internal coordinates     .... (2022 redundants) done
Validating the new internal coordinates .... (2022 redundants) done
Calculating the B-matrix                .... done
Calculating the G,G- and P matrices     .... done
Transforming gradient to internals      .... done
Projecting the internal gradient        .... done
Number of atoms                         ....   9
Number of internal coordinates          ....  30
Current Energy                          ....    -1.444990359 Eh
Current gradient norm                   ....     0.009802616 Eh/bohr
Maximum allowed component of the step   ....  0.300
Current trust radius                    ....  0.300
Updating the Hessian (BFGS)             .... done
Making uphill step                      .... done
Uphill step size                        .... 0.299782
Converting the step to Cartesian space:
 Initial RMS(Int)=    0.0547323847
Transforming coordinates:
 Iter   0:  RMS(Cart)=    0.0510452092 RMS(Int)=    0.0546977977
 Iter   5:  RMS(Cart)=    0.0000003016 RMS(Int)=    0.0000002903
Imposing constraints:
 Iter   0:  RMS(Cart)=    0.0000000025 RMS(Int)=    0.0000000000
CONVERGED
done
Storing new coordinates                 .... done
Current trust radius                    ....     0.3000
Energy difference                       ....     0.5642 kcal/mol
Maximum difference                      ....     0.2700 kcal/mol
New trust radius                        ....     0.3000

                                .--------------------.
          ----------------------|Geometry convergence|-------------------------
          Item                value                   Tolerance       Converged
          ---------------------------------------------------------------------
          Energy change      -0.0008991629            0.0000050000      NO
          RMS gradient        0.0017960011            0.0001000000      NO
          MAX gradient        0.0042133504            0.0003000000      NO
          RMS step            0.0547323847            0.0020000000      NO
          MAX step            0.1378426879            0.0040000000      NO
          ........................................................
          Max(Bonds)      0.0000      Max(Angles)    2.39
          Max(Dihed)        7.90      Max(Improp)    0.00
          ---------------------------------------------------------------------

Geometry step timings:
Preparation and reading OPT file:      0.001 s (10.705 %)
Internal coordinates            :      0.000 s ( 0.121 %)
B/P matrices and projection     :      0.000 s ( 1.379 %)
Hessian update/contruction      :      0.004 s (45.833 %)
Making the step                 :      0.001 s (17.128 %)
Converting the step to Cartesian:      0.000 s ( 5.528 %)
Storing new data                :      0.000 s ( 3.605 %)
Checking convergence            :      0.000 s ( 0.036 %)
GOAT stuff                      :      0.000 s ( 0.012 %)
Final printing                  :      0.001 s (15.628 %)
Total time                      :      0.008 s

Time for energy+gradient        :      0.706 s
Time for complete geometry iter :      0.771 s

         *************************************************************
         *                GEOMETRY OPTIMIZATION CYCLE 700            *
         *************************************************************
------------------------------------------------------------------------------
                         ORCA GEOMETRY RELAXATION STEP
------------------------------------------------------------------------------

Reading the OPT-File                    .... done

---------------------------------------------
FINAL SINGLE POINT ENERGY        -1.444827321062
---------------------------------------------

Getting information on internals        .... done
Copying old internal coords+grads       .... done
Making the new internal coordinates     .... (2022 redundants) done
Validating the new internal coordinates .... (2022 redundants) done
Calculating the B-matrix                .... done
Calculating the G,G- and P matrices     .... done
Transforming gradient to internals      .... done
Projecting the internal gradient        .... done
Number of atoms                         ....   9
Number of internal coordinates          ....  30
Current Energy                          ....    -1.444827321 Eh
Current gradient norm                   ....     0.007899549 Eh/bohr
Maximum allowed component of the step   ....  0.300
Current trust radius                    ....  0.300
Updating the Hessian (BFGS)             .... done
Making uphill step                      .... done
Uphill step size                        .... 0.299708
Converting the step to Cartesian space:
 Initial RMS(Int)=    0.0547190171
Transforming coordinates:
 Iter   0:  RMS(Cart)=    0.0490071436 RMS(Int)=    0.0547906721
 Iter   5:  RMS(Cart)=    0.0000006451 RMS(Int)=    0.0000006285
Imposing constraints:
 Iter   0:  RMS(Cart)=    0.0000000080 RMS(Int)=    0.0000000001
CONVERGED
done
Storing new coordinates                 .... done
Current trust radius                    ....     0.3000
Energy difference                       ....     0.1023 kcal/mol
Maximum difference                      ....     0.2700 kcal/mol
New trust radius                        ....     0.4500

                                .--------------------.
          ----------------------|Geometry convergence|-------------------------
          Item                value                   Tolerance       Converged
          ---------------------------------------------------------------------
          Energy change       0.0001630381            0.0000050000      NO
          RMS gradient        0.0014419746            0.0001000000      NO
          MAX gradient        0.0040083149            0.0003000000      NO
          RMS step            0.0547190171            0.0020000000      NO
          MAX step            0.1244557483            0.0040000000      NO
          ........................................................
          Max(Bonds)      0.0000      Max(Angles)    2.22
          Max(Dihed)        7.13      Max(Improp)    0.00
          ---------------------------------------------------------------------

Geometry step timings:
Preparation and reading OPT file:      0.000 s ( 5.807 %)
Internal coordinates            :      0.000 s ( 0.152 %)
B/P matrices and projection     :      0.000 s ( 1.557 %)
Hessian update/contruction      :      0.004 s (42.906 %)
Making the step                 :      0.002 s (21.154 %)
Converting the step to Cartesian:      0.001 s ( 6.041 %)
Storing new data                :      0.000 s ( 3.875 %)
Checking convergence            :      0.000 s ( 0.035 %)
GOAT stuff                      :      0.000 s ( 0.012 %)
Final printing                  :      0.002 s (18.438 %)
Total time                      :      0.009 s

Time for energy+gradient        :      0.724 s
Time for complete geometry iter :      0.819 s

         *************************************************************
         *                GEOMETRY OPTIMIZATION CYCLE 701            *
         *************************************************************
------------------------------------------------------------------------------
                         ORCA GEOMETRY RELAXATION STEP
------------------------------------------------------------------------------

Reading the OPT-File                    .... done

---------------------------------------------
FINAL SINGLE POINT ENERGY        -1.444840498691
---------------------------------------------

Getting information on internals        .... done
Copying old internal coords+grads       .... done
Making the new internal coordinates     .... (2022 redundants) done
Validating the new internal coordinates .... (2022 redundants) done
Calculating the B-matrix                .... done
Calculating the G,G- and P matrices     .... done
Transforming gradient to internals      .... done
Projecting the internal gradient        .... done
Number of atoms                         ....   9
Number of internal coordinates          ....  30
Current Energy                          ....    -1.444840499 Eh
Current gradient norm                   ....     0.009056962 Eh/bohr
Maximum allowed component of the step   ....  0.300
Current trust radius                    ....  0.450
Updating the Hessian (BFGS)             .... done
Making uphill step                      .... done
Uphill step size                        .... 0.449699
Converting the step to Cartesian space:
 Initial RMS(Int)=    0.0821033389
Transforming coordinates:
 Iter   0:  RMS(Cart)=    0.0699432703 RMS(Int)=    0.0819400711
 Iter   5:  RMS(Cart)=    0.0000128640 RMS(Int)=    0.0000134635
Imposing constraints:
 Iter   0:  RMS(Cart)=    0.0000000043 RMS(Int)=    0.0000000001
CONVERGED
done
Storing new coordinates                 .... done
Current trust radius                    ....     0.4500
Energy difference                       ....     0.0083 kcal/mol
Maximum difference                      ....     0.2700 kcal/mol
New trust radius                        ....     0.6750

                                .--------------------.
          ----------------------|Geometry convergence|-------------------------
          Item                value                   Tolerance       Converged
          ---------------------------------------------------------------------
          Energy change      -0.0000131776            0.0000050000      NO
          RMS gradient        0.0013724737            0.0001000000      NO
          MAX gradient        0.0044166498            0.0003000000      NO
          RMS step            0.0821033389            0.0020000000      NO
          MAX step            0.2036588946            0.0040000000      NO
          ........................................................
          Max(Bonds)      0.0000      Max(Angles)    2.55
          Max(Dihed)       11.67      Max(Improp)    0.00
          ---------------------------------------------------------------------

Geometry step timings:
Preparation and reading OPT file:      0.001 s (10.305 %)
Internal coordinates            :      0.000 s ( 0.157 %)
B/P matrices and projection     :      0.000 s ( 1.730 %)
Hessian update/contruction      :      0.004 s (44.013 %)
Making the step                 :      0.002 s (19.763 %)
Converting the step to Cartesian:      0.001 s ( 7.825 %)
Storing new data                :      0.000 s ( 3.520 %)
Checking convergence            :      0.000 s ( 0.048 %)
GOAT stuff                      :      0.000 s ( 0.000 %)
Final printing                  :      0.001 s (12.615 %)
Total time                      :      0.008 s

Time for energy+gradient        :      0.659 s
Time for complete geometry iter :      0.716 s

         *************************************************************
         *                GEOMETRY OPTIMIZATION CYCLE 702            *
         *************************************************************
------------------------------------------------------------------------------
                         ORCA GEOMETRY RELAXATION STEP
------------------------------------------------------------------------------

Reading the OPT-File                    .... done

---------------------------------------------
FINAL SINGLE POINT ENERGY        -1.444588161119
---------------------------------------------

Getting information on internals        .... done
Copying old internal coords+grads       .... done
Making the new internal coordinates     .... (2022 redundants) done
Validating the new internal coordinates .... (2022 redundants) done
Calculating the B-matrix                .... done
Calculating the G,G- and P matrices     .... done
Transforming gradient to internals      .... done
Projecting the internal gradient        .... done
Number of atoms                         ....   9
Number of internal coordinates          ....  30
Current Energy                          ....    -1.444588161 Eh
Current gradient norm                   ....     0.011814298 Eh/bohr
Maximum allowed component of the step   ....  0.300
Current trust radius                    ....  0.675
Updating the Hessian (BFGS)             .... done
Making uphill step                      .... done
Uphill step size                        .... 0.525440
Converting the step to Cartesian space:
 Initial RMS(Int)=    0.0959317438
Transforming coordinates:
 Iter   0:  RMS(Cart)=    0.0795521229 RMS(Int)=    0.0950908137
 Iter   5:  RMS(Cart)=    0.0000393034 RMS(Int)=    0.0000435389
 Iter  10:  RMS(Cart)=    0.0000000410 RMS(Int)=    0.0000000430
Imposing constraints:
 Iter   0:  RMS(Cart)=    0.0000000014 RMS(Int)=    0.0000000000
CONVERGED
done
Storing new coordinates                 .... done
Current trust radius                    ....     0.6750
Energy difference                       ....     0.1583 kcal/mol
Maximum difference                      ....     0.2700 kcal/mol
New trust radius                        ....     0.7000

                                .--------------------.
          ----------------------|Geometry convergence|-------------------------
          Item                value                   Tolerance       Converged
          ---------------------------------------------------------------------
          Energy change       0.0002523376            0.0000050000      NO
          RMS gradient        0.0015702994            0.0001000000      NO
          MAX gradient        0.0047899547            0.0003000000      NO
          RMS step            0.0959317438            0.0020000000      NO
          MAX step            0.2512916427            0.0040000000      NO
          ........................................................
          Max(Bonds)      0.0000      Max(Angles)    1.85
          Max(Dihed)       14.40      Max(Improp)    0.00
          ---------------------------------------------------------------------

Geometry step timings:
Preparation and reading OPT file:      0.001 s ( 9.779 %)
Internal coordinates            :      0.000 s ( 0.141 %)
B/P matrices and projection     :      0.000 s ( 1.628 %)
Hessian update/contruction      :      0.004 s (41.597 %)
Making the step                 :      0.002 s (21.232 %)
Converting the step to Cartesian:      0.001 s ( 6.394 %)
Storing new data                :      0.000 s ( 3.630 %)
Checking convergence            :      0.000 s ( 0.047 %)
GOAT stuff                      :      0.000 s ( 0.000 %)
Final printing                  :      0.001 s (15.529 %)
Total time                      :      0.009 s

Time for energy+gradient        :      0.714 s
Time for complete geometry iter :      0.753 s

         *************************************************************
         *                GEOMETRY OPTIMIZATION CYCLE 703            *
         *************************************************************
