9
Energy -1.4483276637
6 0.04591638440651005237 0.03766667978510859077 -0.00417945046821581023
6 1.55430595435413665406 -0.01754461469808854188 -0.07586143175603654587
8 2.16224163706626404391 1.20722825641366626748 0.27171358029454351080
1 -0.35914995238901809005 0.87628213975428481675 -0.55485068571087348133
1 -0.31555651850828725369 0.10158018141987690264 1.01528248104142648778
1 -0.41917463764052120823 -0.85513182449502755933 -0.39305971626967567412
1 1.93679402115413035190 -0.82610742637693213020 0.54956006661560719007
1 1.88805177455522565921 -0.24524400806298304878 -1.08426318110404817929
1 1.80657133700156014022 1.50127061626009372652 1.08565833735727190756
9
Energy -1.4463898514
6 -0.04544489079918703073 -0.03661251168293760960 -0.05785665505176871420
6 1.45241691403003003735 0.06817756735279675850 0.05711056075520271752
8 1.77022132205058913001 1.32585694550014432380 0.62070569745339154721
1 -0.45356216470774368688 0.74550409794897543048 -0.68132957322025133884
1 -0.52675551238055573489 0.03479283800559761219 0.90648295240494358715
1 -0.33835632597655213027 -0.98202974810257548377 -0.48773598777480225985
1 1.83629913976685110732 -0.74037797537125116243 0.68243371179065892562
1 1.91082373949766037846 -0.03738272542107080182 -0.92851443436748271054
1 2.69435777851890412293 1.40207151177032107725 0.69870372801010915964
9
Energy -1.4483531779
6 0.05016068650036617504 0.01756506776526316205 0.00443103456114460684
6 1.55848730468789620218 -0.00195444073708593872 -0.08537876896579045527
8 2.14332410580407106693 1.23167416373257543327 0.27113921057210788046
1 -0.38067574863994119161 0.85759661854075830423 -0.52420650659532208593
1 -0.30143661902433793731 0.05620238397269192859 1.02861805532214178882
1 -0.39945358807342251639 -0.87902003326809596828 -0.39370348475483901707
1 1.96680445360661160237 -0.80892279836859903863 0.52565845601416461008
1 1.88567372168571734115 -0.20951223510707855935 -1.10028868838022164667
1 1.77711568345303660976 1.51637127346957156782 1.08373069222661788658
9
Energy -1.4483029907
6 0.05294370612402014148 -0.01452714306492251979 0.06959545330474650737
6 1.56095797744230346815 -0.03224652007106659779 -0.02809132158449044112
8 2.16970768459336094125 0.99296585391346814387 0.72619329468282345363
1 -0.38363085965736742899 0.82794874769309156903 -0.45381937404859795659
1 -0.28898710098995711304 0.01439727981340566641 1.09585529000920400833
1 -0.40153225903626438287 -0.86907477872951954811 -0.40806229199553500919
1 1.96478575297966284730 -0.96677905340557623859 0.35125209028447040849
1 1.87657860232594431160 0.02220200353629900314 -1.07154334398843764653
1 1.74917649621829229822 1.80511361031482198136 0.52862020333582016018
9
Energy -1.4483052337
6 0.05251202456596981011 -0.01379950834105612284 0.11250684328784089916
6 1.56047952137001666451 -0.03225222807734991898 0.20844662581684092473
8 2.12248941615829966878 1.26167329232053337940 0.22837147502701476975
1 -0.39802032460293779170 0.62848979733503407274 0.85718761336889737201
1 -0.38177433176037844920 -0.99546052646969029887 0.22292972976637170923
1 -0.29543448193660942769 0.31438125622506107870 -0.85975452603391233630
1 1.88659190334440296510 -0.51809140487042015799 1.12366179399504018122
1 1.98827711139149210240 -0.62257504588646361832 -0.60358806654477792364
1 1.76487916146973899956 1.75763436776435288955 -0.47976148868331358610
9
Energy -1.4483478508
6 0.05288460377038692317 -0.01258184747454338046 0.10790998932743300909
6 1.56069551426506469838 -0.03412035631004794317 0.20792750692407147017
8 2.12546421702158427891 1.25856066981830361229 0.23250949646235552493
1 -0.39712210036689682413 0.62987214272594560516 0.85323170262331193836
1 -0.38337509145439424563 -0.99272986688403908051 0.22357546971566574778
1 -0.29083606877199985608 0.31425826061080303075 -0.86624884654374345594
1 1.88309119532872726310 -0.52244700735525106960 1.12313008892847721043
1 1.98889381572626589012 -0.62265795916378707808 -0.60545780007311211790
1 1.76030391448125977938 1.76184596403261717334 -0.46657760736445613725
9
Energy -1.4483568228
6 0.05232537093488048852 -0.01227083755527240243 0.10552721500540471200
6 1.55975577233199058647 -0.03480183647499992400 0.20995492269349169678
8 2.12479603343690293116 1.25767564089927064153 0.23741892125635780109
1 -0.39933460523858199664 0.62906999684201936329 0.85095845917304491213
1 -0.38448329230936917345 -0.99279235232824003532 0.21638857666868854812
1 -0.28813525588363925189 0.32030108795933365240 -0.86794294455242015918
1 1.87940289098590751493 -0.52405089706404317518 1.12564038895837637000
1 1.99015066729937850631 -0.62311445999382697458 -0.60249884194018477057
1 1.76552241844252866265 1.75998365771575993044 -0.46544669726275716970
9
Energy -1.4484131782
6 0.05775479166375447476 -0.02353980781037563058 0.02454186563208643132
6 1.56899875515902720302 -0.02721622846899868220 0.01031358541524910431
8 2.12544246649292789542 1.01774642843827733962 0.77770742372367640538
1 -0.35724731571077145142 0.80624452515910205452 -0.53531862132921925745
1 -0.34106851980283742209 0.01942662444135901875 1.02951377087661488652
1 -0.36187947921111773830 -0.89486694764495811061 -0.45439385492650768983
1 1.95984277298436526671 -0.95062129910329640214 0.42843220855496527699
1 1.94143842027812807416 0.01159334362377962419 -1.01497080562922126212
1 1.70671810814651991883 1.82123336136511282390 0.54417442768235901873
9
Energy -1.4463562064
6 -0.03284221271727954389 -0.11643878813537726635 0.03895415791128774285
6 1.45132071523829475623 0.12941373406764059006 -0.02832274442557353167
8 1.73730420346976921486 1.32981078104949390628 0.66242584809942706148
1 -0.59216854895184511953 0.68908799456531433236 -0.41424247513790984909
1 -0.37585109720483400597 -0.21459622527475785692 1.05854542953260644111
1 -0.30179878302897705789 -1.02272753206493427491 -0.48162368909929226257
1 1.98979107494999296613 -0.70865042088999097292 0.41883466391520018934
1 1.77181507417046191222 0.19986723533929126595 -1.06982383937561587040
1 2.65242957407441348749 1.49423322134332159372 0.62525264857987128408
9
Energy -1.4483800939
6 0.05795020176656701799 -0.02748205353393344541 0.03980180628084105388
6 1.56848169145055416074 -0.02220401628135406508 -0.00662809423317282931
8 2.13548695394262288971 1.01527423414342932162 0.76298795007426356563
1 -0.37386944898184132358 0.80790342634644596309 -0.49836128536942669864
1 -0.32023972174210413311 -0.00174907552803882198 1.05318810973583465440
1 -0.36758164072431392944 -0.89476207926645179302 -0.44114081325138460032
1 1.97316892961231871162 -0.94915196681400071377 0.38976416438520583574
1 1.91873152635508370523 0.03265784921626135873 -1.03893904778644485809
1 1.70787150832110712351 1.81951368171764227277 0.54932721016428576188
9
Energy -1.4483261217
6 0.05301729145809278010 -0.01218240675941177804 0.04079063674736840839
6 1.53639091633460256325 0.12611521457152799486 -0.21336828058082901727
8 2.25256140089660616965 0.52359184205808628754 0.93533482320655769726
1 -0.47178193767596415809 -0.43909154438581265989 -0.80051858508127005098
1 -0.42946371582958170476 0.94647556693039858189 0.19181455624643262148
1 -0.15703471510378097520 -0.62959020048375824441 0.90424723183227229129
1 1.96745936392604048315 -0.82096109691628615934 -0.52542786825508047688
1 1.71970957453200457010 0.81861367510603622044 -1.03693151085287293967
1 1.82914182146197568102 1.26702894987921932390 1.31405899673742165845
9
Energy -1.4485204216
6 0.04164601179205534853 0.05925620793005425407 0.01244515826960546599
6 1.52632164312058171696 0.18071696930359812394 -0.24096904406389513253
8 2.18258340124223471079 0.97287813756879482074 0.72446476039422269544
1 -0.47657920889660648767 -0.43368382069176031335 -0.79563648443139523003
1 -0.42851162180274027236 1.02345204966480052278 0.15487345309337158250
1 -0.18004288573893725833 -0.55055882556960122898 0.88014884868730547396
1 1.98627806307539223063 -0.80724075083651469775 -0.30152800171408300489
1 1.72060731439701997125 0.65060172157075035759 -1.20097321924254862857
1 1.92769728281099395062 0.68457831105987765330 1.57717452900741728072
9
Energy -1.4483028506
6 0.04086742786632485691 0.05514532393673742677 0.00821065601035803928
6 1.52605607137573406895 0.18699373728082196999 -0.23858902274219651041
8 2.17272858653275813268 0.98158956349021153631 0.73109498544483664251
1 -0.46864862229231646351 -0.44292761896759030860 -0.80261652616960332818
1 -0.43569196482664440673 1.01599930100001056843 0.15109459200067595908
1 -0.17913874368896215428 -0.55653767919672825215 0.87521209439602154490
1 1.99209500768835923168 -0.79798216740446403783 -0.29982562467312767751
1 1.72140509250358730853 0.66015828783570029703 -1.19670772340771214282
1 1.93032714484115786036 0.67756125202530026463 1.58212656914074889514
9
Energy -1.4482822430
6 0.04267286188053685814 0.05290501827540786822 0.01002231049071260378
6 1.52674957784042009123 0.18832683957589241297 -0.24121898683384190853
8 2.17473890598717067846 0.97979672465973666196 0.73060707017161397037
1 -0.47113712740688185043 -0.44004384194800472141 -0.80086500348599432009
1 -0.43550886568998697923 1.01176583550876508788 0.16070560228453570351
1 -0.17425539106495563368 -0.56450452147113405754 0.87366541099453420838
1 1.99439558519645565582 -0.79575932496317280940 -0.30660630178697328985
1 1.71727580956607472906 0.66776251538325548385 -1.19729583026604391449
1 1.92506864369116614810 0.67975075497925463441 1.58098572843145390721
9
Energy -1.4484144398
6 0.04499077757650880166 0.03740086051738073653 0.01349071579413683129
6 1.52479326331547637707 0.20388823634480940372 -0.24436153099677671019
8 2.16429751318134666604 0.99581462277844223774 0.73256076368870592930
1 -0.46271906174787746924 -0.45810854241791088004 -0.79982439626994350501
1 -0.45004868587057844653 0.98538578822812816771 0.17804055704802571047
1 -0.15484347124108091553 -0.59579429641043490928 0.86988659510963739496
1 2.01052345074575944395 -0.77023019021860150701 -0.32457147368378880259
1 1.70100028839607997355 0.69701869897457457981 -1.19617219428315890717
1 1.92200592564436956167 0.68462482220361453589 1.58095096359315601120
