9
Energy -1.4483276637
6 0.04591638515622276789 0.03766667888113998247 -0.00417945029547870089
6 1.55430595414268490906 -0.01754461407095594949 -0.07586142914849472452
8 2.16224163818688719374 1.20722825800249156103 0.27171357463429168799
1 -0.35914995078569528220 0.87628214846456242704 -0.55485067305459812026
1 -0.31555651990961131048 0.10158016662559081478 1.01528248123420028470
1 -0.41917463830238826938 -0.85513182143005106450 -0.39305972936999838963
1 1.93679401909554638195 -0.82610742364772649093 0.54956007333902678891
1 1.88805177386026601383 -0.24524401606954712718 -1.08426317686870810064
1 1.80657133855608775796 1.50127062324449478403 1.08565832952975860337
9
Energy -1.4483043926
6 0.04465057605508514910 0.01581998710804565986 0.05252694798160732065
6 1.55100367551053452964 -0.07735038993012936792 0.13501851461859426529
8 2.19556052689527980704 1.10031753407535548561 -0.29836473273856434218
1 -0.36649053839983952718 0.69387736490860485450 0.79097445932549903524
1 -0.43804747002687166590 -0.92817443164287005697 0.25464892535649458205
1 -0.29083811620267230325 0.35232818961622969223 -0.91965659187278403497
1 1.86191140315716396891 -0.33285291500975783263 1.14969237184092309967
1 1.92687831571989010015 -0.87727017708627830217 -0.49655042414963840303
1 1.81537162729142553808 1.83330483796079968251 0.14171052963786845424
9
Energy -1.4483271030
6 0.04589957565765183378 0.01528343392624758809 0.07333855368082053960
6 1.52677637690705569895 0.03049831412479855203 0.37452248664485732199
8 2.28229245701974337024 0.67497892532372616436 -0.62737138744897369413
1 -0.51091836167414650394 -0.58994271710377255147 0.77246719361539772919
1 -0.16503748356741854142 -0.35934675968388335443 -0.91973558619103368272
1 -0.40154964255944536333 0.99840393302215380000 0.16046853107204706035
1 1.71372473746671127870 0.48769667598378207973 1.34791210644628667303
1 1.92014538304868764840 -0.97946690473313335890 0.44722428421208121341
1 1.88866695770115766706 1.50189509914008079150 -0.81882618203148438418
9
Energy -1.4483610284
6 0.05289507702392166888 -0.00151917211504316689 0.02242325067976533304
6 1.55528036803218139283 -0.06281880610778171892 0.17556942166915787129
8 2.19884508635372766250 1.11105657739043839349 -0.27012764567956898398
1 -0.40365052248548516367 0.69070389042768265409 0.72016835849784666124
1 -0.42307735411190433572 -0.94621829050651440340 0.23797330378038519805
1 -0.24391684922118611611 0.28882560393929479492 -0.97692955055672836551
1 1.82555274076448248444 -0.27609529815287636723 1.21146963600015111773
1 1.97271444664550643644 -0.87719396424727769102 -0.40999890933984123320
1 1.76535700699875364172 1.85325945937207836600 0.09945213494883119176
9
Energy -1.4463255053
6 -0.03918624455696788356 -0.08418172262850574794 -0.00700766711052259496
6 1.43925044063068452438 0.08278218435395685859 0.22505669385305854258
8 1.79927261897859924744 1.40633529314594607484 -0.11934143470989652669
1 -0.61820884716000779058 0.59961002037807786813 0.59626440093943422482
1 -0.36264444167958864718 -1.08319529740542996876 0.24180692402806916452
1 -0.30428815375707435331 0.09243450436053592123 -1.03915043946106644412
1 1.67811754510945521091 -0.11997409469341206723 1.27110755089438520749
1 1.99593630486439477245 -0.63611203187777942691 -0.37978256096508727913
1 2.71175077757050253524 1.52230114436661034816 0.02104653253162193718
9
Energy -1.4484949075
6 0.05252527543639836510 0.00017111147588633364 0.01876339540975711928
6 1.55384417200283597715 -0.06388146886734324958 0.17818409416572661419
8 2.20176975920334028203 1.10634434880802978718 -0.27023584927780180953
1 -0.40583639411009414522 0.69734754380648833472 0.71020459506827926521
1 -0.42722442573083080353 -0.94101259267518244656 0.23927757669147975417
1 -0.24049464565636247126 0.28634865733663861231 -0.98278019213662226594
1 1.81925032426222421655 -0.27386720485905519107 1.21582097496668417591
1 1.97221388370602701556 -0.88217545313053014056 -0.40099584277274741284
1 1.77395205088645657732 1.85072505810506782176 0.10176124788524146259
9
Energy -1.4484187857
6 0.04671332861310962398 0.01421199820162440466 0.08481581567631435448
6 1.54838215457914385453 -0.04688054994989971497 0.24243235223223974506
8 2.15169265311993518353 1.22807250318224792096 0.23024384687723420395
1 -0.41108186296093479628 0.70031759381133773523 0.78504148839297704932
1 -0.42239496738706316936 -0.94793322521296141669 0.22180292419532723902
1 -0.25126861400122901813 0.30961205697565541417 -0.91418762527241070881
1 1.82252955098179603155 -0.50187451727630427722 1.19016539719046776646
1 1.98704046366672737456 -0.68528076657197134480 -0.52646216506123633128
1 1.82838729338851324613 1.70975490684027042754 -0.50385203423091762254
9
Energy -1.4483335516
6 0.04646059273043647714 0.00864639518437937751 0.07443437390028892486
6 1.54696951840224583563 -0.04352204552877993876 0.24683131035791408547
8 2.14040357656872703984 1.23634862673545087297 0.25529490871998461454
1 -0.42083811940459842083 0.68967137417516521936 0.77342868580840029580
1 -0.41776656994678518231 -0.95665126718795845395 0.20618214986857213988
1 -0.24291335005201741826 0.30589834496752743576 -0.92646204944060339681
1 1.81452168732521856853 -0.50711182963068202056 1.19209404931206575107
1 1.99852461349502363852 -0.66985533307855793517 -0.52455974346777045625
1 1.83463805088174369828 1.71657573436345423090 -0.48724368505885590208
9
Energy -1.4483255609
6 0.04133253394930242602 0.03847337882344329524 0.10105854285167058249
6 1.51549296293034174710 0.10428378956327809257 0.42697708332624911831
8 2.18904358646954921852 1.11596839642840972573 -0.28927260383429781454
1 -0.49367972356640221765 -0.64379482873232340978 0.74369396236517093524
1 -0.14336068035603993787 -0.34133900024514302052 -0.89681660315752320667
1 -0.43883232987719167362 1.00454329138039377689 0.18448207880118297486
1 1.67226448536930538680 0.32355851245932681914 1.47930161643854884979
1 1.98827743001863543881 -0.86458691880555571529 0.25648342529967044223
1 1.96946173506249566643 1.04289337912816915122 -1.19590750209067619991
9
Energy -1.4484417764
6 0.04151062375504425278 0.03774941174049747938 0.10140415860251784930
6 1.51537265797751752316 0.10607844784822539896 0.42875818469578758085
8 2.18940559686381375215 1.11534809761535469441 -0.29062655925192509843
1 -0.49211736096305963573 -0.64655494067383567636 0.74315021022894678371
1 -0.14117648553994410765 -0.34614951175735919620 -0.89545717123672563531
1 -0.43796081537339381917 1.00505554670434538167 0.17543084041487352898
1 1.67121119220578129294 0.32835480985993287240 1.48062312651969274491
1 1.98908372811136957559 -0.86300252451839176704 0.26273938140217989456
1 1.96467086296286641556 1.04312066318122798059 -1.19602217137535227209
9
Energy -1.4484651877
6 0.03328307132101984006 0.09804241586993539537 0.11085234565539422991
6 1.48489520011002484878 0.31512294373334409636 0.47046166171668601930
8 2.27672129640915787974 0.66747836215500755408 -0.64274871410606237987
1 -0.11754366183739155260 -0.80647614221836594339 -0.46642722207373787935
1 -0.37591738531366697407 0.92514901516472602960 -0.45417844279626884418
1 -0.59145436780218618722 -0.04165134082457297438 0.97956575337936802050
1 1.59165352169310159169 1.12560087832972266497 1.18603678973702253430
1 1.89217670095585521750 -0.56865435333866176659 0.96476370945319112060
1 2.10618562446408219557 0.06538822112886284732 -1.33832588096559845781
9
Energy -1.4483001870
6 0.03631202802562859266 0.07772014251127430662 0.12481245861725510926
6 1.52177845799684030581 0.06104731025708167585 0.40160912938395465499
8 2.21752092039988291106 1.07672525793745732514 -0.28756546822420731013
1 -0.50862782518777882590 -0.61388847178294747575 0.74868057359379669435
1 -0.19946902256431883749 -0.24254761527508045260 -0.88310182987391316889
1 -0.39647847358367677151 1.05859265615030695429 0.27003280040241556259
1 1.72259134291482296497 0.22032492319650390233 1.45731167619642776323
1 1.94275342909775483591 -0.91812056546416598302 0.16621539331019355434
1 1.96361914290084249579 1.06014636246956617249 -1.18799473340592509629
9
Energy -1.4483084581
6 0.02854737004567656916 0.14139134009491499677 0.14062077556715865678
6 1.50206346635887943997 0.26443854054711357637 0.45350573546574696193
8 2.26823958725636254385 0.64730904313401316230 -0.66751040445869580520
1 -0.18745387510275673959 -0.71218973879227087664 -0.49102027487823624030
1 -0.35801301721303085968 1.02290332600432742893 -0.35377968944948268160
1 -0.56719678637868742310 -0.02558862571378581890 1.02518317486229904034
1 1.67713554614050752711 1.02215298167631218895 1.21197850579513888292
1 1.88160047232122384919 -0.66723511644937238962 0.87680551552703733798
1 2.05507723657181884391 0.08681824949874498987 -1.38578333843096768163
9
Energy -1.4481892986
6 0.03986966996018982690 0.05433284499019527813 0.12899364473163352218
6 1.52683154448153945992 0.07671854873422337406 0.39846738595766645341
8 2.19296845486104308165 1.10822977602436822941 -0.29623648995105439363
1 -0.48300490617948099725 -0.65035505221557432520 0.75746120712675402142
1 -0.19074903150897851156 -0.27245383057877470279 -0.87819154222493656103
1 -0.41650988645601938476 1.02422092431263411783 0.27738326428232368270
1 1.72867356587939169366 0.24305909905506764557 1.45288118472272498316
1 1.97190050949476858300 -0.89173785854597842349 0.16317293126197740527
1 1.93002007946753839640 1.08798554822383564122 -1.19393158590709425049
9
Energy -1.4482284110
6 0.03113819774082088321 0.12445008576213673068 0.13761388875550503719
6 1.50056903116685202981 0.27754447274274124391 0.45574097283168990558
8 2.26466966175650741278 0.66533408470074406615 -0.66514842340449287228
1 -0.16696398509403681532 -0.73999275052233470795 -0.48517800462273552586
1 -0.37098196061636778964 0.99382407915260062570 -0.36560496100299300082
1 -0.56715757939134980870 -0.04631440667914365344 1.01966441926071382795
1 1.65837249964970978588 1.04426335144107373942 1.20894225790329223891
1 1.89609143769964183512 -0.64336046845550376450 0.88767152045801367422
1 2.05426269708821163107 0.10425155185768322785 -1.38370167017899770023
9
Energy -1.4462917201
6 -0.07728917645209196219 0.14233456774446701099 0.19596918680856378892
6 1.42399946828247836450 0.18589459668766078471 0.30654034525254347798
8 1.96135871140954232139 0.39341330645193572924 -0.98496011113961812189
1 -0.40737510142567329163 -0.65622865824788412237 -0.45229521805364930609
1 -0.47595872329701383041 1.06524988121974861777 -0.19934239461212302502
1 -0.53417538525406771388 -0.01579253487372133530 1.16086797622915072203
1 1.72540258323760586912 0.98956278861419433301 0.98161823613879473083
1 1.79433598691047357931 -0.74965469710726628794 0.73104385261295834475
1 2.88970163658872891688 0.42522074951086319405 -0.92944187323662563749
9
Energy -1.4484263558
6 0.03277441978171927867 0.11604507582024764512 0.14250867386096616185
6 1.50216541726868535456 0.28592742741325194444 0.45192344991662691811
8 2.25821858965759236781 0.66638469601825556232 -0.67675766858363728407
1 -0.16249389168056826982 -0.75946214070906148397 -0.46503880740536251981
1 -0.37883126019374580018 0.97410806966254570582 -0.37237654227431254972
1 -0.56183941058965203297 -0.03796592703790687556 1.02963893607078071923
1 1.65647114024559227730 1.06306352065863629619 1.19507124883819826344
1 1.90744030236140460488 -0.62592266729784495904 0.89404247426520133679
1 2.04609469314895076053 0.09782194547187483824 -1.38901176468846321299
