9
Energy -1.4483642527
6 0.04592969166670041181 0.03768489995869071796 -0.00417713550021269961
6 1.55431043811312719072 -0.01756199077278530057 -0.07587728823435677117
8 2.16221309549983642384 1.20721746373157912124 0.27172066559469248981
1 -0.35914366423364141312 0.87628389424236108329 -0.55486104011142101111
1 -0.31552083327799712587 0.10161536763020546925 1.01527914083291226355
1 -0.41915650246090624398 -0.85512441735284872024 -0.39301195219454282404
1 1.93678161628489564627 -0.82609530387381380212 0.54951971547210276547
1 1.88807447831303765184 -0.24524747989744435928 -1.08425326978059999306
1 1.80651168009494766942 1.50122756633405463056 1.08566116392142486546
9
Energy -1.4484918234
6 0.04957979434681539926 0.00303805296285172095 0.06035506782994669306
6 1.55809790489442656636 -0.04659086784589235031 -0.01732182724345572924
8 2.17785719088810347799 0.97982641626739164220 0.72638315348518522896
1 -0.36297097951351764422 0.84702138811035188048 -0.47947688332230686825
1 -0.30575877143617224974 0.05589724663412282135 1.08094072082967107562
1 -0.41612807712862553977 -0.85531246527258963930 -0.39900146459740992722
1 1.93740558273045260229 -0.98209852761391147613 0.38436781851710455360
1 1.88812920988574117764 -0.01757988366269307504 -1.05714112068998078442
1 1.77378814533277573418 1.79579864042036807525 0.51089453519124361502
9
Energy -1.4484944869
6 0.04756746264125728818 0.03201150788408705511 0.00149888992331037455
6 1.55575512314975261674 -0.01165827204522104643 -0.08339809933408270926
8 2.15916152504045211202 1.21218398528345217002 0.27502178326450965606
1 -0.36712526564725228573 0.87848599427411455665 -0.52990640643899633577
1 -0.30640826823614025765 0.07311116463766223483 1.02478224467918899165
1 -0.41503485200092066210 -0.85875223463700633975 -0.39489188921685097755
1 1.94951023563945757822 -0.82490092620307275961 0.52886654576108871328
1 1.88264200143682924882 -0.22487361684915022075 -1.09728403216789716090
1 1.79393203797656086707 1.50439239765513121938 1.08531096352972755703
9
Energy -1.4483018692
6 0.04673137459367490698 0.03874323232362706509 -0.00369446340110355211
6 1.55498900156905195402 -0.01934482188960325727 -0.07767140621955877233
8 2.16686447537146031905 1.20244574316097407873 0.27368560475499725815
1 -0.35683105134184894824 0.88580835731926232945 -0.54255851903643237399
1 -0.31448693464945992604 0.09570227421460447692 1.01630686391866742468
1 -0.42112412023323136934 -0.85244561532813989402 -0.39269998137622891266
1 1.93715681410880224966 -0.83074452443879842622 0.54417524923766746880
1 1.88721082057726863290 -0.24460668886324804516 -1.08710730090590246277
1 1.79948962000428247521 1.50444204350131949255 1.07956395302789087687
9
Energy -1.4484012622
6 0.04671816804974308207 0.03954685889894733047 -0.00554155117973837916
6 1.55514530620257351856 -0.01969062389837476432 -0.07466323906449397196
8 2.16646628411957342664 1.20274990959132122015 0.27476983456905729186
1 -0.35525366983623457573 0.88372702623182064485 -0.54960479811848950149
1 -0.31746359961413977979 0.09775697232717411866 1.01323595230966034819
1 -0.42150936109358116965 -0.84984100931612860386 -0.39781676651511366227
1 1.93480105295165660806 -0.82960782260397702981 0.55039380957780292825
1 1.89028656807459705114 -0.24871885545961064379 -1.08226485320904530774
1 1.80080925114581069657 1.50407754422882677936 1.08149161163035634203
9
Energy -1.4463312530
6 -0.04519017045734359528 -0.07859523447660674011 0.06118875819706334068
6 1.44625887978651279653 0.10570153436894172416 -0.03639023254204509783
8 1.79109986809090293569 1.30857474604385926042 0.62262910462473908257
1 -0.57939818149908728362 0.73695207448820188034 -0.40429660346406354199
1 -0.37386092385213481881 -0.13642105210353985822 1.08872284751482895082
1 -0.35943998261566800778 -0.98810047137432288622 -0.42680666751230550426
1 1.95846458796328648511 -0.74347668347685169632 0.42107121076001879922
1 1.75063563039511915775 0.14097206740799844704 -1.08449625397950355499
1 2.71143029218841036254 1.43439301912231753633 0.56837783640126271489
9
Energy -1.4463270474
6 -0.04508601792929534807 -0.07905839100765950367 0.06023029614972760792
6 1.44624725070350557132 0.10592498580024090060 -0.03504750418530610395
8 1.79029886001824856123 1.30929740040725617334 0.62318029870009838955
1 -0.57933844819829738437 0.73692584113196857309 -0.40425172447510754337
1 -0.37601121140094384554 -0.13873240564850286560 1.08682615267266480252
1 -0.35751405674170522175 -0.98761285267629128626 -0.43106501182026746299
1 1.95824815371468785585 -0.74269100143099486822 0.42328915500949226836
1 1.75251583154372814199 0.13983191316352899802 -1.08266020471777912881
1 2.71063963829006926431 1.43611451026045155999 0.56949854266647392809
9
Energy -1.4482833645
6 0.04957050110695201961 0.00501484368165970498 0.04930426341579204758
6 1.55902881112086677540 -0.05059278436673351337 -0.00188783240699115398
8 2.16946165461710194222 0.98712090206200564513 0.73350778507873148904
1 -0.35138507865189860802 0.84124866295342304312 -0.51130106296090693796
1 -0.32224699128897815736 0.07489682314185282241 1.06303397454382220211
1 -0.41120635341531797113 -0.85779041031144898088 -0.40670353110575574451
1 1.92799833194864800312 -0.97973751864401070755 0.42337209039698775470
1 1.90648817322207042579 -0.04082166402678296530 -1.03664395782686447056
1 1.77229095134055114613 1.80066114551003231270 0.49731827086518154424
9
Energy -1.4484262156
6 0.04877706451688239991 0.00573355921582154298 0.05127563020040917796
6 1.55801148414140944176 -0.05107939407221108452 -0.00294497398189079223
8 2.17065040000551201516 0.98607552320545477365 0.73167926353582812826
1 -0.35250533339757178508 0.84069703595312539335 -0.51059544604146678282
1 -0.32077185095615001753 0.08030942080524375304 1.06554472004750189207
1 -0.41417406085459668175 -0.85925878634755403773 -0.39820615353497484934
1 1.92753080992393099891 -0.98076578785240731140 0.42036966879716375356
1 1.90434605822908520345 -0.04208675506800337029 -1.03789793495826798697
1 1.77813542839149074659 1.80037518416052555459 0.49077522593569516962
9
Energy -1.4482502802
6 0.04949734306352578800 0.00562276412651161166 0.04399140982495441249
6 1.55915542295657250094 -0.05166614533266642578 0.00446897071635613419
8 2.16498089611491861817 0.98984553915754858178 0.73845771546086058645
1 -0.34596992826016353950 0.83814089789346302162 -0.52590291289843049682
1 -0.33011876860706923509 0.08429695665015866923 1.05424487471910777181
1 -0.40882577005812975601 -0.86117887377882651467 -0.40692752740705923076
1 1.92474679048405450388 -0.97872213302205224306 0.43700883762989140013
1 1.91460474432854343974 -0.04874871592380974200 -1.02749378209699404607
1 1.77192926997774025111 1.80240971022966656179 0.49215241405130960572
9
Energy -1.4483603274
6 0.04946251822414944599 0.01092417472782256614 0.01949139577424693556
6 1.54398282029934841297 0.09499245546315204791 -0.18852272084966958943
8 2.23309884655095558514 0.52392803752353100943 0.96542645987389807960
1 -0.45966400505409937827 -0.43928454859160304125 -0.81909619558617730029
1 -0.40882641640947064987 0.98864475783498462214 0.11163986137430087497
1 -0.20834200705529337672 -0.55916847303581029838 0.90238978156719040769
1 1.95666596958144412000 -0.87711846706356710879 -0.44335689891765284187
1 1.77610105888189995227 0.74337964273130985315 -1.03523526535962040462
1 1.81752121498106222752 1.29370242041017280421 1.29726358212347814280
9
Energy -1.4484496269
6 0.04257034035431313257 0.07997911779826565037 -0.01920351226065427838
6 1.53967539906253603199 0.14887755196317711825 -0.21423559324203553245
8 2.17779688572144225489 0.96792591581612785756 0.74078713860323630591
1 -0.45589869379868358523 -0.43892287883334513143 -0.82334056943181421762
1 -0.40365386855880414085 1.06240182239231661931 0.06346796888131579772
1 -0.23356222224723227621 -0.48725157844204503022 0.86166775202699819047
1 1.97227516768772082045 -0.85330780348473034280 -0.20739083083579110123
1 1.78574981803856536189 0.56858700458834410263 -1.18567825893136391535
1 1.87504717374013352149 0.73171084820188314612 1.59392590519010313166
9
Energy -1.4483837388
6 0.04326566020816607905 0.07801161590121175049 -0.01850916941840787672
6 1.53964882620882725917 0.14952944295634074123 -0.21406295812753980967
8 2.17658681332004899645 0.96851509178239325593 0.74219445079939827536
1 -0.45812216703629810022 -0.43323297567015667253 -0.82543085796460746728
1 -0.40696702592713235314 1.05855139794908170714 0.06137534489938373944
1 -0.23233952990564443741 -0.48691514229929300228 0.86376444472766822358
1 1.97470665314816806735 -0.85141241704704828663 -0.20964765566932161422
1 1.78592580513540877263 0.57016415067569214958 -1.18483786920759182060
1 1.87729496484844604609 0.72678883575177199994 1.59515426996101061796
9
Energy -1.4462216263
6 -0.05539471801132003770 0.03974852125608502318 -0.09174203031190870938
6 1.43688374435168531029 0.01470352366087633589 0.10957820217753624914
8 1.85545446371562894328 1.30442285117493006474 0.51113628140579769887
1 -0.34415891797440162359 0.75256378939981760645 -0.85038096791502559846
1 -0.57600294862097622950 0.30717353893493393180 0.81629795041427921642
1 -0.42265058560083995642 -0.92644920058117852246 -0.40186248586721484699
1 1.69885258657552129513 -0.72723578659185805773 0.86644918460524544823
1 1.93438952036704048254 -0.27906629694793949614 -0.81733340104109997171
1 2.77262685519764939812 1.29413905969432496690 0.66785726653238386419
