9
Energy -1.4483642527
6 0.04592969151153404594 0.03768489996201926373 -0.00417713538071950476
6 1.55431043781163880091 -0.01756199059189941097 -0.07587728784064963483
8 2.16221309587412635622 1.20721746391054751690 0.27172066487783774758
1 -0.35914366450611084902 0.87628389501273851181 -0.55486103883885917742
1 -0.31552083391700630477 0.10161536609555529842 1.01527914099217042576
1 -0.41915650132829673780 -0.85512441738242184197 -0.39301195416666134808
1 1.93678161565653650378 -0.82609530347746962242 0.54951971631968887788
1 1.88807447761556246313 -0.24524748074207258774 -1.08425326923934384205
1 1.80651168128201611296 1.50122756721300176785 1.08566116327653605644
9
Energy -1.4483512153
6 0.05062874173966626368 0.06186964585283736412 -0.06247074577229317499
6 1.54044692402545879695 -0.10376224254068748543 0.13100915173102409272
8 2.12640725048397838393 0.98024654721281878622 0.81778646210956806861
1 -0.18746133040584644913 0.83624347156042289075 -0.78212387838934549489
1 -0.45720802684701988827 0.30049305355739752699 0.86268434571665109090
1 -0.41366093854809121710 -0.82414996271349572066 -0.46757620420338524836
1 1.76011573524949382907 -0.98930764211857158408 0.72089115404106485219
1 2.03494951745397401055 -0.26037425248098272634 -0.82944563381171543259
1 1.84578212684839071400 1.77874138167025863666 0.41924534857843553937
9
Energy -1.4482724299
6 0.05289043471831407495 0.06094843994408185445 -0.07217886367886176824
6 1.53970608412117737629 -0.10398498491772478758 0.14263207443903924698
8 2.11834248134244695905 0.98820501066534993662 0.82273164004585697118
1 -0.17486167166085322955 0.82715049925136407971 -0.80384337801033489690
1 -0.46692210200036443624 0.31126584841688004213 0.84327272266698494185
1 -0.40817510248129573736 -0.82933130787637099335 -0.47173189569455570291
1 1.75080427623758616562 -0.98241358513519438933 0.74589686845784675118
1 2.04683794117269535207 -0.27378788287093919207 -0.80881387017264316786
1 1.84137765855029589268 1.78194796252255294178 0.41203470194667063398
9
Energy -1.4462182618
6 -0.04380082089914346527 -0.01409182076658098068 -0.09592937038988104403
6 1.44787598082380042364 0.04836166388972220481 0.09957650942712244213
8 1.77971828305778267953 1.32784917009187308778 0.60220217113235130491
1 -0.38648821644958986088 0.72759958978617467196 -0.80249331100921439397
1 -0.57525254151290650118 0.15059768019210587053 0.83009339717701491335
1 -0.34821026994559561851 -0.97793027786915565081 -0.47352996254917095742
1 1.76688058061839137203 -0.73198628572588242402 0.79398085053993394666
1 1.95639730849730431039 -0.13626459641220020624 -0.84870747081167363657
1 2.70287969580996056962 1.38586487681394232574 0.70480718648352047584
9
Energy -1.4484573372
6 0.05024034892922585316 0.03898132563523849098 -0.02868760176482818003
6 1.55970885604284426051 -0.03256318870163337625 -0.03896827666570334275
8 2.16756692685295737633 1.20248907359225620795 0.26982640721007616902
1 -0.32465655364646284209 0.85432385118970721738 -0.63331254662295932700
1 -0.35000048441914616282 0.15806111252021665114 0.97123282988116466097
1 -0.40937177892987558492 -0.86827497616923476897 -0.38958119953098974131
1 1.90997024552863470248 -0.81119588019177746308 0.64104221815965367615
1 1.92911541633025729325 -0.31524907106214899999 -1.02067579658670171128
1 1.76742702331156587015 1.55342775318737258416 1.03912396592029154796
9
Energy -1.4484890196
6 0.04979897952641074155 0.03146813237277335668 -0.01976180874444086188
6 1.55979213225905399831 -0.02581108001229398194 -0.04733829468234677235
8 2.15925768577399868065 1.21435332878142121515 0.25819655002968439073
1 -0.33907300941037399333 0.84588453541443364703 -0.61673896611216438846
1 -0.33992030215512503144 0.14151392884763874802 0.98529028495115800190
1 -0.40510488551934137336 -0.87853275475492698110 -0.37969117214614955813
1 1.92474528462112171034 -0.80293751484312292366 0.62667911221340599770
1 1.92056383551507758867 -0.30075298901753749758 -1.03448495104907034481
1 1.76994027938917786180 1.55481441321161084623 1.03784924553992863316
9
Energy -1.4483677574
6 0.04960633661133537209 0.00958020283693534688 0.03056381131714199645
6 1.55229795904632483783 -0.07047016354606472355 0.16913177635311568703
8 2.20634058543756994553 1.09334436730987638597 -0.28746372909688888697
1 -0.39243415357682076561 0.70676148350683432042 0.73240279260403229333
1 -0.43617168104447212595 -0.92749420172416008334 0.25563359339073349341
1 -0.25380999183045149792 0.30241727816962948872 -0.96595884589557712285
1 1.82977397581886580546 -0.28359503437838473605 1.20301961071167951012
1 1.95376972601282106190 -0.89262504101763640030 -0.41664329322697324365
1 1.79062724352482893764 1.84208110884296538678 0.08931428384274155141
9
Energy -1.4484520101
6 0.04478753650216880933 0.02492373397641344662 0.09180859865457351165
6 1.54681161552159807115 -0.05541429931684884597 0.23626445075910409988
8 2.16575255896154583724 1.21226810889316505282 0.22232295898410070478
1 -0.39797193739741487661 0.71910656934918359973 0.79365583706366138461
1 -0.43761669775148165362 -0.92909424568048470938 0.23759306188681217353
1 -0.25936340073530772532 0.32249230960082314601 -0.90449699463009292089
1 1.82284966687813709818 -0.51636954841838633712 1.18044445498317984722
1 1.97116755887723194007 -0.69649410388735599753 -0.53848061579674111332
1 1.84358309914352669345 1.69858147548348381584 -0.50911175190459201367
9
Energy -1.4463313932
6 -0.03838850977307237122 -0.07625759663785311449 -0.03218450930033517343
6 1.43418562036483621114 0.07939116556034316041 0.24129678547008368006
8 1.81781064025343819246 1.39389433021779174382 -0.11169629913349327088
1 -0.62728539960397466935 0.62710799889739132773 0.53832257184247123138
1 -0.38170601758362143752 -1.06504530050034551536 0.23043353865197344077
1 -0.27123180317413547735 0.08093524958488522436 -1.07511569143265650617
1 1.63962292505707529777 -0.11009093541408271344 1.29690256530374803390
1 2.00096847071077643676 -0.65432470575897738740 -0.33571107583803011520
1 2.72602407374868160872 1.50438979405084105601 0.05775211443624596319
9
Energy -1.4483913089
6 0.05222611270002147643 0.00038181019447669295 0.01795355685971667878
6 1.55444271542209366821 -0.06455407251914525857 0.16938824030122182074
8 2.19848278045179768014 1.11653227576932456699 -0.25567135896953369079
1 -0.40410352108882741096 0.68131307388944073455 0.72671709882307988781
1 -0.42352535821207359934 -0.94731578805488936279 0.21938728976480775801
1 -0.24585772968380414927 0.30789935447736849206 -0.97573043056626629355
1 1.82384884752067888414 -0.29716151236888344034 1.20138038448880890563
1 1.97172476451500044980 -0.86865427689213803308 -0.43024085472338857716
1 1.77276138837511831881 1.85155913550443984583 0.13681607402155870901
9
Energy -1.4484314025
6 0.04604824089677731630 0.01811146631130430493 0.08519858329050246371
6 1.54821494420694416583 -0.05245133272421315801 0.23414390880374477688
8 2.15734316941747161778 1.22000598912850333200 0.24465023597107796172
1 -0.40532303515248430115 0.69516676260784926455 0.79827423592939394936
1 -0.42803542470918742868 -0.94281951060500757134 0.21278203452896390924
1 -0.25583816335082476545 0.32996351192113915207 -0.90747856541748472825
1 1.82492166952168033411 -0.52828474848441731027 1.17083873237931124223
1 1.98033959355400224212 -0.67670277020303981619 -0.54994615085058884407
1 1.83232900561562406239 1.71701063204787796046 -0.47846301463491558437
9
Energy -1.4483224768
6 0.04831039727167211334 0.01164689850862295900 0.03943045451468684542
6 1.55754260634997465651 -0.05387467396104306944 0.00278601272908129754
8 2.16751449769577009263 0.97300256534807372244 0.75358412485157355576
1 -0.34157095167935419555 0.85293900364627006638 -0.52101388083589206257
1 -0.33368820609176869096 0.07961230413668886341 1.04946845083462236836
1 -0.41444659722656079781 -0.84676803133069511453 -0.42242668798122867679
1 1.91724881661159018975 -0.98954934085802648269 0.42145454175399832408
1 1.91600063153269273286 -0.03886779941805774269 -1.02801545476905809018
1 1.78308880553598814167 1.79185907392816390349 0.51473243890222153407
9
Energy -1.4482690654
6 0.04868975189003623555 0.01040963160522902047 0.04492878329209436250
6 1.55763137721599087548 -0.05355865096935586572 -0.00152741150493605131
8 2.17103459856280212037 0.97389580970196787391 0.74567498672003929006
1 -0.34603165315961093018 0.85219755137127184419 -0.51171353641471661877
1 -0.32700452606881141859 0.07781185434314612237 1.05749656038014960835
1 -0.41591664961195645711 -0.84674840953532681809 -0.41762065847390822393
1 1.92051471088446379376 -0.98882136107698104244 0.41547732133826503764
1 1.90908660562458742938 -0.03730832489853972561 -1.03472045346762842044
1 1.78199578466250341258 1.79212189945858524354 0.51200440813064818091
9
Energy -1.4478204652
6 0.06932068978917549362 0.04304433109833832871 0.02615342520162265011
6 1.57705351179430275366 -0.05679967424192255282 -0.03899930224418994562
8 2.24337418292831847211 1.06107485268984613747 0.50861878236678714771
1 -0.31512333961154137540 0.87920780516039809260 -0.54756390833326518131
1 -0.29774850871806834984 0.10187283123194164347 1.04471165042560176772
1 -0.42447954057041553666 -0.81695277832515789118 -0.40076148820419282837
1 1.92242539979134918759 -0.94528333241444195689 0.48946430690054176793
1 1.90554977971450290042 -0.17561936446899020781 -1.07117048830661931724
1 1.61962782488238032919 1.68945532926998320811 0.79954702219372175698
9
Energy -1.4484759822
6 0.04649787930136467518 0.03448317082379700332 0.00961814762632814263
6 1.54353046918602943016 0.09024311467937878861 -0.18857033300962405820
8 2.23612021276091654798 0.46536086491398009901 0.98188569403723158224
1 -0.46888857935502131769 -0.37870043463988339871 -0.84383969080547038821
1 -0.39106573561024493557 1.01883497978665937822 0.12615398549076453638
1 -0.23004649031615853616 -0.55815078715411303723 0.87162816490935568492
1 1.93494626585871465352 -0.88220157371942187208 -0.47368804003918407730
1 1.79522974485642339282 0.75975343463009159528 -1.01296403123975564675
1 1.83367623331797813258 1.23037723067950555134 1.33977610303035832295
9
Energy -1.4482948599
6 0.03847025949448092119 0.09015771448937612287 -0.01014357457011758924
6 1.51715544625370379883 0.30050851630560598826 -0.23993983421503264908
8 2.30303319551119312081 -0.09747500941790278317 0.86193739784553546901
1 -0.18310522919210750481 -0.91219953181264334940 0.33177848197965942312
1 -0.54691699013661099205 0.26306977769845885096 -0.90005380309367222225
1 -0.36909047171591846670 0.78543924475313420253 0.71395704705854290406
1 1.86663046425500600556 -0.28244487560098424650 -1.08732933346784910178
1 1.71926433467455441750 1.34140067613745106456 -0.49850002750994065748
1 1.95455899085570239393 0.29154348744749897238 1.63829364597287496785
9
Energy -1.4462969070
6 -0.05822568168187457205 0.04818327232186991188 -0.07742167802028428192
6 1.41579475679821253919 0.35457383972875139433 -0.08560652941882872236
8 1.94226303251124066129 0.04978795606553477332 1.19107134928819902164
1 -0.25039211385619714045 -0.99293087311466654565 0.13590310304655672802
1 -0.50848957663215044178 0.26419306892904753647 -1.03365148521697136630
1 -0.58571361884722650260 0.63495147395433071402 0.66003069183724050184
1 1.91597659507639561660 -0.23408884317824443788 -0.85763577277304736679
1 1.57755595158504502429 1.40715846336517214077 -0.32640130640516101801
1 2.85123065504655803792 0.24817164192819879398 1.20371162766229811147
9
Energy -1.4459980272
6 -0.04573895285112124232 0.04646835525520338211 -0.06945439544647323549
6 1.40847979217789909256 0.44200427982002910010 -0.07713944950759775432
8 1.95433170872792660866 0.26271099072548215192 1.21546834421650173930
1 -0.17230788987201683948 -0.99378681326455242662 0.19448931403689792563
1 -0.49037445663072992685 0.17787921232480649603 -1.04431679879457961491
1 -0.61734558967027808318 0.63060283288386365097 0.63706524101283712458
1 1.94855728525986293675 -0.15036932193470217700 -0.81044716485249357341
1 1.51906552818798368243 1.48603384703923802057 -0.38256288618946765467
1 2.79533257467047802081 -0.12154338284937286907 1.14689779552437753907
9
Energy -1.4484902813
6 0.04026957251071859589 0.08144477039482002356 -0.00743559834399494871
6 1.51571081967606158258 0.30951465099785735458 -0.24218843413875426607
8 2.31053795657562099919 -0.08225798147567253693 0.85559791600444468074
1 -0.16901454957169503857 -0.92587163083369872218 0.32782774871947673034
1 -0.55129709377474622745 0.25537695791459541494 -0.89306204448732506851
1 -0.37148569582768797837 0.76754008385025895844 0.72317836505574162320
1 1.86844740166482270460 -0.26752886111804524694 -1.09232221499401416231
1 1.70493714992783229611 1.35355996429555580640 -0.49796030758704223906
1 1.95189443881907287448 0.28822204597432310447 1.63636456977147060066
