                                 *****************
                                 * O   R   C   A *
                                 *****************

                       *****************************
                       * Geometry Optimization Run *
                       *****************************

Geometry optimization settings:
Update method            Update   .... BFGS
Choice of coordinates    CoordSys .... (2022) Redundant Internals
Initial Hessian          InHess   .... Almloef's Model
Max. no of cycles        MaxIter  .... 9000

Convergence Tolerances:
Energy Change            TolE     ....  5.0000e-06 Eh
Max. Gradient            TolMAXG  ....  3.0000e-04 Eh/bohr
RMS Gradient             TolRMSG  ....  1.0000e-04 Eh/bohr
Max. Displacement        TolMAXD  ....  4.0000e-03 bohr
RMS Displacement         TolRMSD  ....  2.0000e-03 bohr
Strict Convergence                .... False

------------------------------------------------------------------------------
                        ORCA OPTIMIZATION COORDINATE SETUP
------------------------------------------------------------------------------

The optimization will be done in redundant internal coordinates (2022)
Making redundant internal coordinates   ...  (2022 redundants) done
Evaluating the initial hessian          ...  (Almloef) done
Evaluating the coordinates              ...  done
Calculating the B-matrix                .... done
Calculating the G-matrix                .... done
Diagonalizing the G-matrix              .... done
The first mode is                       ....    9
The number of degrees of freedom        ....   21

    -----------------------------------------------------------------
                    Redundant Internal Coordinates


    -----------------------------------------------------------------
         Definition                    Initial Value    Approx d2E/dq
    -----------------------------------------------------------------
      1. B(C   1,C   0)                  1.5112         0.400329   
      2. B(O   2,C   1)                  1.4109         0.518227   
      3. B(H   3,C   0)                  1.0819         0.370957   
      4. B(H   4,C   0)                  1.0835         0.368784   
      5. B(H   5,C   0)                  1.0792         0.374695   
      6. B(H   6,C   1)                  1.0915         0.358170   
      7. B(H   7,C   1)                  1.0864         0.364937   
      8. B(H   8,O   2)                  0.9357         0.568490   
      9. A(C   1,C   0,H   5)          112.5155         0.330191   
     10. A(H   3,C   0,H   4)          107.9622         0.293300   
     11. A(H   3,C   0,H   5)          107.2235         0.294037   
     12. A(C   1,C   0,H   4)          112.3237         0.329325   
     13. A(C   1,C   0,H   3)          112.2073         0.329644   
     14. A(H   4,C   0,H   5)          104.1299         0.293764   
     15. A(H   6,C   1,H   7)          105.6154         0.291204   
     16. A(C   0,C   1,O   2)          112.7462         0.386639   
     17. A(O   2,C   1,H   7)          106.1577         0.341088   
     18. A(C   0,C   1,H   7)          110.9960         0.328755   
     19. A(O   2,C   1,H   6)          110.5488         0.340022   
     20. A(C   0,C   1,H   6)          110.4624         0.327741   
     21. A(C   1,O   2,H   8)          108.8648         0.364443   
     22. D(O   2,C   1,C   0,H   4)    -70.3483         0.012715   
     23. D(H   6,C   1,C   0,H   3)    175.7441         0.012715   
     24. D(O   2,C   1,C   0,H   3)     51.5028         0.012715   
     25. D(H   6,C   1,C   0,H   4)     53.8930         0.012715   
     26. D(H   6,C   1,C   0,H   5)    -63.2289         0.012715   
     27. D(O   2,C   1,C   0,H   5)    172.5298         0.012715   
     28. D(H   8,O   2,C   1,C   0)     50.4138         0.021286   
     29. D(H   8,O   2,C   1,H   7)    172.1471         0.021286   
     30. D(H   8,O   2,C   1,H   6)    -73.7800         0.021286   
    -----------------------------------------------------------------

Number of atoms                         .... 9
Number of degrees of freedom            .... 30


         *************************************************************
         *                GEOMETRY OPTIMIZATION CYCLE   1            *
         *************************************************************
------------------------------------------------------------------------------
                         ORCA GEOMETRY RELAXATION STEP
------------------------------------------------------------------------------

Reading the OPT-File                    .... done

---------------------------------------------
FINAL SINGLE POINT ENERGY        -1.448327663750
---------------------------------------------

Getting information on internals        .... done
Copying old internal coords+grads       .... done
Making the new internal coordinates     .... (2022 redundants) done
Validating the new internal coordinates .... (2022 redundants) done
Calculating the B-matrix                .... done
Calculating the G,G- and P matrices     .... done
Transforming gradient to internals      .... done
Projecting the internal gradient        .... done
Number of atoms                         ....   9
Number of internal coordinates          ....  30
Current Energy                          ....    -1.448327664 Eh
Current gradient norm                   ....     0.000238731 Eh/bohr
Maximum allowed component of the step   ....  0.300
Current trust radius                    ....  0.300
Evaluating the initial hessian          ....  (Almloef) done
Projecting the Hessian                  .... done
Forming the augmented Hessian           .... done
Diagonalizing the augmented Hessian     .... done
Last element of RFO vector              ....  0.999992495
Lowest eigenvalues of augmented Hessian:
 -0.000000368  0.012714851  0.021286314  0.100081124  0.128402191
Length of the computed step             ....  0.003874328
The final length of the internal step   ....  0.003874328
Converting the step to Cartesian space:
 Initial RMS(Int)=    0.0007073523
Transforming coordinates:
 Iter   0:  RMS(Cart)=    0.0007958852 RMS(Int)=    0.0007073579
done
Storing new coordinates                 .... done

       Everything but the energy has converged. However, the energy
       appears to be close enough to convergence to make sure that the
       final evaluation at the new geometry represents the equilibrium energy.
       Convergence will therefore be signaled now


			-----------------------
			     GOAT ITER   1       
			-----------------------

	Minimum found after 1 optimization iterations! E = -1.448328

	No previous minima found yet, adding first to ethanol_goat.goat.0.2.ensembleen.tmp.

	Number of GOAT steps per global cycle: 27

	Current MaxEn         : 27.00 kcal/mol
	Current Temperature   : 725.99 K
	Current UphillGradComp: 1.00

                                .--------------------.
          ----------------------|Geometry convergence|-------------------------
          Item                value                   Tolerance       Converged
          ---------------------------------------------------------------------
          RMS gradient        0.0000330190            0.0001000000      YES
          MAX gradient        0.0000776938            0.0003000000      YES
          RMS step            0.0007073523            0.0020000000      YES
          MAX step            0.0018595001            0.0040000000      YES
          ........................................................
          Max(Bonds)      0.0001      Max(Angles)    0.02
          Max(Dihed)        0.11      Max(Improp)    0.00
          ---------------------------------------------------------------------

Geometry step timings:
Preparation and reading OPT file:      0.001 s ( 1.086 %)
Internal coordinates            :      0.000 s ( 0.018 %)
B/P matrices and projection     :      0.000 s ( 0.224 %)
Hessian update/contruction      :      0.007 s (13.104 %)
Making the step                 :      0.000 s ( 0.148 %)
Converting the step to Cartesian:      0.000 s ( 0.034 %)
Storing new data                :      0.000 s ( 0.644 %)
Checking convergence            :      0.000 s ( 0.007 %)
GOAT stuff                      :      0.041 s (74.043 %)
Final printing                  :      0.006 s (10.679 %)
Total time                      :      0.055 s

Time for energy+gradient        :      0.679 s
Time for complete geometry iter :      0.974 s

         *************************************************************
         *                GEOMETRY OPTIMIZATION CYCLE   2            *
         *************************************************************
------------------------------------------------------------------------------
                         ORCA GEOMETRY RELAXATION STEP
------------------------------------------------------------------------------

Reading the OPT-File                    .... done

---------------------------------------------
FINAL SINGLE POINT ENERGY        -1.448328364688
---------------------------------------------

Getting information on internals        .... done
Copying old internal coords+grads       .... done
Making the new internal coordinates     .... (2022 redundants) done
Validating the new internal coordinates .... (2022 redundants) done
Calculating the B-matrix                .... done
Calculating the G,G- and P matrices     .... done
Transforming gradient to internals      .... done
Projecting the internal gradient        .... done
Number of atoms                         ....   9
Number of internal coordinates          ....  30
Current Energy                          ....    -1.448328365 Eh
Current gradient norm                   ....     0.000186950 Eh/bohr
Maximum allowed component of the step   ....  0.300
Current trust radius                    ....  0.300
Updating the Hessian (BFGS)             .... done
Making initial random step              .... (random uniform) done
Converting the step to Cartesian space:
 Initial RMS(Int)=    0.0404003456
Transforming coordinates:
 Iter   0:  RMS(Cart)=    0.0387292530 RMS(Int)=    0.0287960443
 Iter   5:  RMS(Cart)=    0.0000000098 RMS(Int)=    0.0000000104
Imposing constraints:
 Iter   0:  RMS(Cart)=    0.0000000003 RMS(Int)=    0.0000000000
CONVERGED
done
Storing new coordinates                 .... done
Current trust radius                    ....     0.3000
Energy difference                       ....     0.0004 kcal/mol
Maximum difference                      ....     0.2700 kcal/mol
New trust radius                        ....     0.4500

                                .--------------------.
          ----------------------|Geometry convergence|-------------------------
          Item                value                   Tolerance       Converged
          ---------------------------------------------------------------------
          Energy change      -0.0000007009            0.0000050000      YES
          RMS gradient        0.0000265755            0.0001000000      YES
          MAX gradient        0.0000646901            0.0003000000      YES
          RMS step            0.0404003456            0.0020000000      NO
          MAX step            0.0827412107            0.0040000000      NO
          ........................................................
          Max(Bonds)      0.0000      Max(Angles)    4.74
          Max(Dihed)        4.53      Max(Improp)    0.00
          ---------------------------------------------------------------------

Geometry step timings:
Preparation and reading OPT file:      0.001 s ( 6.801 %)
Internal coordinates            :      0.000 s ( 0.121 %)
B/P matrices and projection     :      0.000 s ( 2.466 %)
Hessian update/contruction      :      0.004 s (40.950 %)
Making the step                 :      0.003 s (25.427 %)
Converting the step to Cartesian:      0.001 s ( 7.307 %)
Storing new data                :      0.000 s ( 3.598 %)
Checking convergence            :      0.000 s ( 0.051 %)
GOAT stuff                      :      0.000 s ( 0.000 %)
Final printing                  :      0.001 s (13.259 %)
Total time                      :      0.010 s

Time for energy+gradient        :      0.760 s
Time for complete geometry iter :      0.808 s

         *************************************************************
         *                GEOMETRY OPTIMIZATION CYCLE   3            *
         *************************************************************
------------------------------------------------------------------------------
                         ORCA GEOMETRY RELAXATION STEP
------------------------------------------------------------------------------

Reading the OPT-File                    .... done

---------------------------------------------
FINAL SINGLE POINT ENERGY        -1.447720932077
---------------------------------------------

Getting information on internals        .... done
Copying old internal coords+grads       .... done
Making the new internal coordinates     .... (2022 redundants) done
Validating the new internal coordinates .... (2022 redundants) done
Calculating the B-matrix                .... done
Calculating the G,G- and P matrices     .... done
Transforming gradient to internals      .... done
Projecting the internal gradient        .... done
Number of atoms                         ....   9
Number of internal coordinates          ....  30
Current Energy                          ....    -1.447720932 Eh
Current gradient norm                   ....     0.012689722 Eh/bohr
Maximum allowed component of the step   ....  0.300
Current trust radius                    ....  0.450
Updating the Hessian (BFGS)             .... done
Making uphill step                      .... done
Uphill step size                        .... 0.449912
Converting the step to Cartesian space:
 Initial RMS(Int)=    0.0821423969
Transforming coordinates:
 Iter   0:  RMS(Cart)=    0.0777868138 RMS(Int)=    1.1245233415
 Iter   5:  RMS(Cart)=    0.0000009298 RMS(Int)=    0.0000010114
Imposing constraints:
 Iter   0:  RMS(Cart)=    0.0000000013 RMS(Int)=    0.0000000000
CONVERGED
done
Storing new coordinates                 .... done
Current trust radius                    ....     0.4500
Energy difference                       ....     0.3812 kcal/mol
Maximum difference                      ....     0.2700 kcal/mol
New trust radius                        ....     0.3000

                                .--------------------.
          ----------------------|Geometry convergence|-------------------------
          Item                value                   Tolerance       Converged
          ---------------------------------------------------------------------
          Energy change       0.0006074326            0.0000050000      NO
          RMS gradient        0.0024807900            0.0001000000      NO
          MAX gradient        0.0065492768            0.0003000000      NO
          RMS step            0.0821423969            0.0020000000      NO
          MAX step            0.1946977230            0.0040000000      NO
          ........................................................
          Max(Bonds)      0.0000      Max(Angles)    2.64
          Max(Dihed)       11.16      Max(Improp)    0.00
          ---------------------------------------------------------------------

Geometry step timings:
Preparation and reading OPT file:      0.001 s (10.094 %)
Internal coordinates            :      0.000 s ( 0.120 %)
B/P matrices and projection     :      0.000 s ( 1.382 %)
Hessian update/contruction      :      0.003 s (36.830 %)
Making the step                 :      0.002 s (26.556 %)
Converting the step to Cartesian:      0.001 s ( 6.345 %)
Storing new data                :      0.000 s ( 4.650 %)
Checking convergence            :      0.000 s ( 0.036 %)
GOAT stuff                      :      0.000 s ( 0.012 %)
Final printing                  :      0.001 s (13.951 %)
Total time                      :      0.008 s

Time for energy+gradient        :      0.704 s
Time for complete geometry iter :      0.728 s

         *************************************************************
         *                GEOMETRY OPTIMIZATION CYCLE   4            *
         *************************************************************
------------------------------------------------------------------------------
                         ORCA GEOMETRY RELAXATION STEP
------------------------------------------------------------------------------

Reading the OPT-File                    .... done

---------------------------------------------
FINAL SINGLE POINT ENERGY        -1.446318495926
---------------------------------------------

Getting information on internals        .... done
Copying old internal coords+grads       .... done
Making the new internal coordinates     .... (2022 redundants) done
Validating the new internal coordinates .... (2022 redundants) done
Calculating the B-matrix                .... done
Calculating the G,G- and P matrices     .... done
Transforming gradient to internals      .... done
Projecting the internal gradient        .... done
Number of atoms                         ....   9
Number of internal coordinates          ....  30
Current Energy                          ....    -1.446318496 Eh
Current gradient norm                   ....     0.018247199 Eh/bohr
Maximum allowed component of the step   ....  0.300
Current trust radius                    ....  0.300
Updating the Hessian (BFGS)             .... done
Making uphill step                      .... done
Uphill step size                        .... 0.299964
Converting the step to Cartesian space:
 Initial RMS(Int)=    0.0547657485
Transforming coordinates:
 Iter   0:  RMS(Cart)=    0.0555078502 RMS(Int)=    0.0548368752
 Iter   5:  RMS(Cart)=    0.0000000649 RMS(Int)=    0.0000000648
Imposing constraints:
 Iter   0:  RMS(Cart)=    0.0000000021 RMS(Int)=    0.0000000000
CONVERGED
done
Storing new coordinates                 .... done
Current trust radius                    ....     0.3000
Energy difference                       ....     0.8800 kcal/mol
Maximum difference                      ....     0.2700 kcal/mol
New trust radius                        ....     0.3000

                                .--------------------.
          ----------------------|Geometry convergence|-------------------------
          Item                value                   Tolerance       Converged
          ---------------------------------------------------------------------
          Energy change       0.0014024362            0.0000050000      NO
          RMS gradient        0.0037875578            0.0001000000      NO
          MAX gradient        0.0098568446            0.0003000000      NO
          RMS step            0.0547657485            0.0020000000      NO
          MAX step            0.1112295914            0.0040000000      NO
          ........................................................
          Max(Bonds)      0.0000      Max(Angles)    1.68
          Max(Dihed)        6.37      Max(Improp)    0.00
          ---------------------------------------------------------------------

Geometry step timings:
Preparation and reading OPT file:      0.001 s (10.544 %)
Internal coordinates            :      0.000 s ( 0.146 %)
B/P matrices and projection     :      0.000 s ( 1.537 %)
Hessian update/contruction      :      0.003 s (40.495 %)
Making the step                 :      0.001 s (15.750 %)
Converting the step to Cartesian:      0.000 s ( 6.425 %)
Storing new data                :      0.000 s ( 4.054 %)
Checking convergence            :      0.000 s ( 0.053 %)
GOAT stuff                      :      0.000 s ( 0.013 %)
Final printing                  :      0.002 s (20.956 %)
Total time                      :      0.008 s

Time for energy+gradient        :      0.728 s
Time for complete geometry iter :      0.759 s

         *************************************************************
         *                GEOMETRY OPTIMIZATION CYCLE   5            *
         *************************************************************
------------------------------------------------------------------------------
                         ORCA GEOMETRY RELAXATION STEP
------------------------------------------------------------------------------

Reading the OPT-File                    .... done

---------------------------------------------
FINAL SINGLE POINT ENERGY        -1.446981582991
---------------------------------------------

Getting information on internals        .... done
Copying old internal coords+grads       .... done
Making the new internal coordinates     .... (2022 redundants) done
Validating the new internal coordinates .... (2022 redundants) done
Calculating the B-matrix                .... done
Calculating the G,G- and P matrices     .... done
Transforming gradient to internals      .... done
Projecting the internal gradient        .... done
Number of atoms                         ....   9
Number of internal coordinates          ....  30
Current Energy                          ....    -1.446981583 Eh
Current gradient norm                   ....     0.011554489 Eh/bohr
Maximum allowed component of the step   ....  0.300
Current trust radius                    ....  0.300
Updating the Hessian (BFGS)             .... done
Making uphill step                      .... done
Uphill step size                        .... 0.299915
Converting the step to Cartesian space:
 Initial RMS(Int)=    0.0547568212
Transforming coordinates:
 Iter   0:  RMS(Cart)=    0.0616873233 RMS(Int)=    0.0549253554
 Iter   5:  RMS(Cart)=    0.0000000572 RMS(Int)=    0.0000000582
Imposing constraints:
 Iter   0:  RMS(Cart)=    0.0000000013 RMS(Int)=    0.0000000000
CONVERGED
done
Storing new coordinates                 .... done
Current trust radius                    ....     0.3000
Energy difference                       ....     0.4161 kcal/mol
Maximum difference                      ....     0.2700 kcal/mol
New trust radius                        ....     0.3000

                                .--------------------.
          ----------------------|Geometry convergence|-------------------------
          Item                value                   Tolerance       Converged
          ---------------------------------------------------------------------
          Energy change      -0.0006630871            0.0000050000      NO
          RMS gradient        0.0025380926            0.0001000000      NO
          MAX gradient        0.0078968673            0.0003000000      NO
          RMS step            0.0547568212            0.0020000000      NO
          MAX step            0.1111899010            0.0040000000      NO
          ........................................................
          Max(Bonds)      0.0000      Max(Angles)    3.02
          Max(Dihed)        6.37      Max(Improp)    0.00
          ---------------------------------------------------------------------

Geometry step timings:
Preparation and reading OPT file:      0.001 s ( 6.466 %)
Internal coordinates            :      0.000 s ( 0.056 %)
B/P matrices and projection     :      0.000 s ( 0.746 %)
Hessian update/contruction      :      0.008 s (64.391 %)
Making the step                 :      0.002 s (13.332 %)
Converting the step to Cartesian:      0.001 s ( 4.316 %)
Storing new data                :      0.000 s ( 2.784 %)
Checking convergence            :      0.000 s ( 0.024 %)
GOAT stuff                      :      0.000 s ( 0.000 %)
Final printing                  :      0.001 s ( 7.885 %)
Total time                      :      0.012 s

Time for energy+gradient        :      0.882 s
Time for complete geometry iter :      0.914 s

         *************************************************************
         *                GEOMETRY OPTIMIZATION CYCLE   6            *
         *************************************************************
------------------------------------------------------------------------------
                         ORCA GEOMETRY RELAXATION STEP
------------------------------------------------------------------------------

Reading the OPT-File                    .... done

---------------------------------------------
FINAL SINGLE POINT ENERGY        -1.447158920229
---------------------------------------------

Getting information on internals        .... done
Copying old internal coords+grads       .... done
Making the new internal coordinates     .... (2022 redundants) done
Validating the new internal coordinates .... (2022 redundants) done
Calculating the B-matrix                .... done
Calculating the G,G- and P matrices     .... done
Transforming gradient to internals      .... done
Projecting the internal gradient        .... done
Number of atoms                         ....   9
Number of internal coordinates          ....  30
Current Energy                          ....    -1.447158920 Eh
Current gradient norm                   ....     0.005993743 Eh/bohr
Maximum allowed component of the step   ....  0.300
Current trust radius                    ....  0.300
Updating the Hessian (BFGS)             .... done
Making uphill step                      .... done
Uphill step size                        .... 0.299889
Converting the step to Cartesian space:
 Initial RMS(Int)=    0.0547519113
Transforming coordinates:
 Iter   0:  RMS(Cart)=    0.0596501534 RMS(Int)=    0.0547877483
 Iter   5:  RMS(Cart)=    0.0000000401 RMS(Int)=    0.0000000361
Imposing constraints:
 Iter   0:  RMS(Cart)=    0.0000000008 RMS(Int)=    0.0000000000
CONVERGED
done
Storing new coordinates                 .... done
Current trust radius                    ....     0.3000
Energy difference                       ....     0.1113 kcal/mol
Maximum difference                      ....     0.2700 kcal/mol
New trust radius                        ....     0.4500

                                .--------------------.
          ----------------------|Geometry convergence|-------------------------
          Item                value                   Tolerance       Converged
          ---------------------------------------------------------------------
          Energy change      -0.0001773372            0.0000050000      NO
          RMS gradient        0.0009268634            0.0001000000      NO
          MAX gradient        0.0020959435            0.0003000000      NO
          RMS step            0.0547519113            0.0020000000      NO
          MAX step            0.1162514168            0.0040000000      NO
          ........................................................
          Max(Bonds)      0.0000      Max(Angles)    0.93
          Max(Dihed)        6.66      Max(Improp)    0.00
          ---------------------------------------------------------------------

Geometry step timings:
Preparation and reading OPT file:      0.008 s (44.969 %)
Internal coordinates            :      0.000 s ( 0.055 %)
B/P matrices and projection     :      0.000 s ( 0.644 %)
Hessian update/contruction      :      0.005 s (28.131 %)
Making the step                 :      0.002 s ( 8.669 %)
Converting the step to Cartesian:      0.001 s ( 3.796 %)
Storing new data                :      0.001 s ( 2.819 %)
Checking convergence            :      0.000 s ( 0.017 %)
GOAT stuff                      :      0.000 s ( 0.000 %)
Final printing                  :      0.002 s (10.894 %)
Total time                      :      0.018 s

Time for energy+gradient        :      0.732 s
Time for complete geometry iter :      0.774 s

         *************************************************************
         *                GEOMETRY OPTIMIZATION CYCLE   7            *
         *************************************************************
------------------------------------------------------------------------------
                         ORCA GEOMETRY RELAXATION STEP
------------------------------------------------------------------------------

Reading the OPT-File                    .... done

---------------------------------------------
FINAL SINGLE POINT ENERGY        -1.446631254328
---------------------------------------------

Getting information on internals        .... done
Copying old internal coords+grads       .... done
Making the new internal coordinates     .... (2022 redundants) done
Validating the new internal coordinates .... (2022 redundants) done
Calculating the B-matrix                .... done
Calculating the G,G- and P matrices     .... done
Transforming gradient to internals      .... done
Projecting the internal gradient        .... done
Number of atoms                         ....   9
Number of internal coordinates          ....  30
Current Energy                          ....    -1.446631254 Eh
Current gradient norm                   ....     0.007403845 Eh/bohr
Maximum allowed component of the step   ....  0.300
Current trust radius                    ....  0.450
Updating the Hessian (BFGS)             .... done
Making uphill step                      .... done
Uphill step size                        .... 0.449872
Converting the step to Cartesian space:
 Initial RMS(Int)=    0.0821350950
Transforming coordinates:
 Iter   0:  RMS(Cart)=    0.0917686887 RMS(Int)=    0.0820821996
 Iter   5:  RMS(Cart)=    0.0000005907 RMS(Int)=    0.0000005333
Imposing constraints:
 Iter   0:  RMS(Cart)=    0.0000000058 RMS(Int)=    0.0000000000
CONVERGED
done
Storing new coordinates                 .... done
Current trust radius                    ....     0.4500
Energy difference                       ....     0.3311 kcal/mol
Maximum difference                      ....     0.2700 kcal/mol
New trust radius                        ....     0.3000

                                .--------------------.
          ----------------------|Geometry convergence|-------------------------
          Item                value                   Tolerance       Converged
          ---------------------------------------------------------------------
          Energy change       0.0005276659            0.0000050000      NO
          RMS gradient        0.0009911384            0.0001000000      NO
          MAX gradient        0.0025233726            0.0003000000      NO
          RMS step            0.0821350950            0.0020000000      NO
          MAX step            0.1826556808            0.0040000000      NO
          ........................................................
          Max(Bonds)      0.0000      Max(Angles)    0.79
          Max(Dihed)       10.47      Max(Improp)    0.00
          ---------------------------------------------------------------------

Geometry step timings:
Preparation and reading OPT file:      0.000 s ( 7.603 %)
Internal coordinates            :      0.000 s ( 0.156 %)
B/P matrices and projection     :      0.000 s ( 1.705 %)
Hessian update/contruction      :      0.002 s (36.248 %)
Making the step                 :      0.001 s (16.927 %)
Converting the step to Cartesian:      0.001 s (12.093 %)
Storing new data                :      0.000 s ( 5.163 %)
Checking convergence            :      0.000 s ( 0.047 %)
GOAT stuff                      :      0.000 s ( 0.000 %)
Final printing                  :      0.001 s (20.025 %)
Total time                      :      0.006 s

Time for energy+gradient        :      0.690 s
Time for complete geometry iter :      0.712 s

         *************************************************************
         *                GEOMETRY OPTIMIZATION CYCLE   8            *
         *************************************************************
------------------------------------------------------------------------------
                         ORCA GEOMETRY RELAXATION STEP
------------------------------------------------------------------------------

Reading the OPT-File                    .... done

---------------------------------------------
FINAL SINGLE POINT ENERGY        -1.446165691507
---------------------------------------------

Getting information on internals        .... done
Copying old internal coords+grads       .... done
Making the new internal coordinates     .... (2022 redundants) done
Validating the new internal coordinates .... (2022 redundants) done
Calculating the B-matrix                .... done
Calculating the G,G- and P matrices     .... done
Transforming gradient to internals      .... done
Projecting the internal gradient        .... done
Number of atoms                         ....   9
Number of internal coordinates          ....  30
Current Energy                          ....    -1.446165692 Eh
Current gradient norm                   ....     0.009274714 Eh/bohr
Maximum allowed component of the step   ....  0.300
Current trust radius                    ....  0.300
Updating the Hessian (BFGS)             .... done
Making uphill step                      .... done
Uphill step size                        .... 0.299737
Converting the step to Cartesian space:
 Initial RMS(Int)=    0.0547241916
Transforming coordinates:
 Iter   0:  RMS(Cart)=    0.0633634992 RMS(Int)=    0.0547025420
 Iter   5:  RMS(Cart)=    0.0000000721 RMS(Int)=    0.0000000663
Imposing constraints:
 Iter   0:  RMS(Cart)=    0.0000000012 RMS(Int)=    0.0000000000
CONVERGED
done
Storing new coordinates                 .... done
Current trust radius                    ....     0.3000
Energy difference                       ....     0.2921 kcal/mol
Maximum difference                      ....     0.2700 kcal/mol
New trust radius                        ....     0.3000

                                .--------------------.
          ----------------------|Geometry convergence|-------------------------
          Item                value                   Tolerance       Converged
          ---------------------------------------------------------------------
          Energy change       0.0004655628            0.0000050000      NO
          RMS gradient        0.0012730001            0.0001000000      NO
          MAX gradient        0.0035109303            0.0003000000      NO
          RMS step            0.0547241916            0.0020000000      NO
          MAX step            0.1291816725            0.0040000000      NO
          ........................................................
          Max(Bonds)      0.0000      Max(Angles)    0.61
          Max(Dihed)        7.40      Max(Improp)    0.00
          ---------------------------------------------------------------------

Geometry step timings:
Preparation and reading OPT file:      0.001 s (10.912 %)
Internal coordinates            :      0.000 s ( 0.141 %)
B/P matrices and projection     :      0.000 s ( 1.748 %)
Hessian update/contruction      :      0.003 s (39.363 %)
Making the step                 :      0.002 s (21.838 %)
Converting the step to Cartesian:      0.000 s ( 6.274 %)
Storing new data                :      0.000 s ( 4.638 %)
Checking convergence            :      0.000 s ( 0.042 %)
GOAT stuff                      :      0.000 s ( 0.000 %)
Final printing                  :      0.001 s (15.015 %)
Total time                      :      0.007 s

Time for energy+gradient        :      0.658 s
Time for complete geometry iter :      0.682 s

         *************************************************************
         *                GEOMETRY OPTIMIZATION CYCLE   9            *
         *************************************************************
------------------------------------------------------------------------------
                         ORCA GEOMETRY RELAXATION STEP
------------------------------------------------------------------------------

Reading the OPT-File                    .... done

---------------------------------------------
FINAL SINGLE POINT ENERGY        -1.445864428484
---------------------------------------------

Getting information on internals        .... done
Copying old internal coords+grads       .... done
Making the new internal coordinates     .... (2022 redundants) done
Validating the new internal coordinates .... (2022 redundants) done
Calculating the B-matrix                .... done
Calculating the G,G- and P matrices     .... done
Transforming gradient to internals      .... done
Projecting the internal gradient        .... done
Number of atoms                         ....   9
Number of internal coordinates          ....  30
Current Energy                          ....    -1.445864428 Eh
Current gradient norm                   ....     0.009722751 Eh/bohr
Maximum allowed component of the step   ....  0.300
Current trust radius                    ....  0.300
Updating the Hessian (BFGS)             .... done
Making uphill step                      .... done
Uphill step size                        .... 0.299679
Converting the step to Cartesian space:
 Initial RMS(Int)=    0.0547136022
Transforming coordinates:
 Iter   0:  RMS(Cart)=    0.0645877090 RMS(Int)=    0.0546879068
 Iter   5:  RMS(Cart)=    0.0000000880 RMS(Int)=    0.0000000815
Imposing constraints:
 Iter   0:  RMS(Cart)=    0.0000000018 RMS(Int)=    0.0000000000
CONVERGED
done
Storing new coordinates                 .... done
Current trust radius                    ....     0.3000
Energy difference                       ....     0.1890 kcal/mol
Maximum difference                      ....     0.2700 kcal/mol
New trust radius                        ....     0.4500

                                .--------------------.
          ----------------------|Geometry convergence|-------------------------
          Item                value                   Tolerance       Converged
          ---------------------------------------------------------------------
          Energy change       0.0003012630            0.0000050000      NO
          RMS gradient        0.0013155282            0.0001000000      NO
          MAX gradient        0.0038697931            0.0003000000      NO
          RMS step            0.0547136022            0.0020000000      NO
          MAX step            0.1323472834            0.0040000000      NO
          ........................................................
          Max(Bonds)      0.0000      Max(Angles)    0.71
          Max(Dihed)        7.58      Max(Improp)    0.00
          ---------------------------------------------------------------------

Geometry step timings:
Preparation and reading OPT file:      0.001 s ( 7.639 %)
Internal coordinates            :      0.000 s ( 0.144 %)
B/P matrices and projection     :      0.000 s ( 1.834 %)
Hessian update/contruction      :      0.003 s (39.523 %)
Making the step                 :      0.001 s (20.996 %)
Converting the step to Cartesian:      0.000 s ( 6.599 %)
Storing new data                :      0.000 s ( 4.996 %)
Checking convergence            :      0.000 s ( 0.043 %)
GOAT stuff                      :      0.000 s ( 0.000 %)
Final printing                  :      0.001 s (18.209 %)
Total time                      :      0.007 s

Time for energy+gradient        :      0.696 s
Time for complete geometry iter :      0.719 s

         *************************************************************
         *                GEOMETRY OPTIMIZATION CYCLE  10            *
         *************************************************************
------------------------------------------------------------------------------
                         ORCA GEOMETRY RELAXATION STEP
------------------------------------------------------------------------------

Reading the OPT-File                    .... done

---------------------------------------------
FINAL SINGLE POINT ENERGY        -1.445975457015
---------------------------------------------

Getting information on internals        .... done
Copying old internal coords+grads       .... done
Making the new internal coordinates     .... (2022 redundants) done
Validating the new internal coordinates .... (2022 redundants) done
Calculating the B-matrix                .... done
Calculating the G,G- and P matrices     .... done
Transforming gradient to internals      .... done
Projecting the internal gradient        .... done
Number of atoms                         ....   9
Number of internal coordinates          ....  30
Current Energy                          ....    -1.445975457 Eh
Current gradient norm                   ....     0.009867778 Eh/bohr
Maximum allowed component of the step   ....  0.300
Current trust radius                    ....  0.450
Updating the Hessian (BFGS)             .... done
Making uphill step                      .... done
Uphill step size                        .... 0.449713
Converting the step to Cartesian space:
 Initial RMS(Int)=    0.0821060547
Transforming coordinates:
 Iter   0:  RMS(Cart)=    0.0974891398 RMS(Int)=    0.0819880036
 Iter   5:  RMS(Cart)=    0.0000010762 RMS(Int)=    0.0000009897
Imposing constraints:
 Iter   0:  RMS(Cart)=    0.0000000011 RMS(Int)=    0.0000000000
CONVERGED
done
Storing new coordinates                 .... done
Current trust radius                    ....     0.4500
Energy difference                       ....     0.0697 kcal/mol
Maximum difference                      ....     0.2700 kcal/mol
New trust radius                        ....     0.6750

                                .--------------------.
          ----------------------|Geometry convergence|-------------------------
          Item                value                   Tolerance       Converged
          ---------------------------------------------------------------------
          Energy change      -0.0001110285            0.0000050000      NO
          RMS gradient        0.0012980199            0.0001000000      NO
          MAX gradient        0.0039132053            0.0003000000      NO
          RMS step            0.0821060547            0.0020000000      NO
          MAX step            0.1975893671            0.0040000000      NO
          ........................................................
          Max(Bonds)      0.0000      Max(Angles)    1.07
          Max(Dihed)       11.32      Max(Improp)    0.00
          ---------------------------------------------------------------------

Geometry step timings:
Preparation and reading OPT file:      0.001 s (10.554 %)
Internal coordinates            :      0.000 s ( 0.143 %)
B/P matrices and projection     :      0.000 s ( 1.588 %)
Hessian update/contruction      :      0.003 s (36.413 %)
Making the step                 :      0.001 s (17.608 %)
Converting the step to Cartesian:      0.001 s (12.728 %)
Storing new data                :      0.000 s ( 3.748 %)
Checking convergence            :      0.000 s ( 0.039 %)
GOAT stuff                      :      0.000 s ( 0.000 %)
Final printing                  :      0.001 s (17.166 %)
Total time                      :      0.008 s

Time for energy+gradient        :      0.742 s
Time for complete geometry iter :      0.767 s

         *************************************************************
         *                GEOMETRY OPTIMIZATION CYCLE  11            *
         *************************************************************
------------------------------------------------------------------------------
                         ORCA GEOMETRY RELAXATION STEP
------------------------------------------------------------------------------

Reading the OPT-File                    .... done

---------------------------------------------
FINAL SINGLE POINT ENERGY        -1.445777231834
---------------------------------------------

Getting information on internals        .... done
Copying old internal coords+grads       .... done
Making the new internal coordinates     .... (2022 redundants) done
Validating the new internal coordinates .... (2022 redundants) done
Calculating the B-matrix                .... done
Calculating the G,G- and P matrices     .... done
Transforming gradient to internals      .... done
Projecting the internal gradient        .... done
Number of atoms                         ....   9
Number of internal coordinates          ....  30
Current Energy                          ....    -1.445777232 Eh
Current gradient norm                   ....     0.009998126 Eh/bohr
Maximum allowed component of the step   ....  0.300
Current trust radius                    ....  0.675
Updating the Hessian (BFGS)             .... done
Making uphill step                      .... done
Uphill step size                        .... 0.256870
Converting the step to Cartesian space:
 Initial RMS(Int)=    0.0468978547
Transforming coordinates:
 Iter   0:  RMS(Cart)=    0.0434345345 RMS(Int)=    0.0466856183
 Iter   5:  RMS(Cart)=    0.0000007918 RMS(Int)=    0.0000009000
Imposing constraints:
 Iter   0:  RMS(Cart)=    0.0000000011 RMS(Int)=    0.0000000000
CONVERGED
done
Storing new coordinates                 .... done
Current trust radius                    ....     0.6750
Energy difference                       ....     0.1244 kcal/mol
Maximum difference                      ....     0.2700 kcal/mol
New trust radius                        ....     0.7000

                                .--------------------.
          ----------------------|Geometry convergence|-------------------------
          Item                value                   Tolerance       Converged
          ---------------------------------------------------------------------
          Energy change       0.0001982252            0.0000050000      NO
          RMS gradient        0.0012530182            0.0001000000      NO
          MAX gradient        0.0031773460            0.0003000000      NO
          RMS step            0.0468978547            0.0020000000      NO
          MAX step            0.1423791541            0.0040000000      NO
          ........................................................
          Max(Bonds)      0.0000      Max(Angles)    1.74
          Max(Dihed)        8.16      Max(Improp)    0.00
          ---------------------------------------------------------------------

Geometry step timings:
Preparation and reading OPT file:      0.001 s (12.564 %)
Internal coordinates            :      0.000 s ( 0.128 %)
B/P matrices and projection     :      0.000 s ( 1.495 %)
Hessian update/contruction      :      0.003 s (37.781 %)
Making the step                 :      0.001 s (18.328 %)
Converting the step to Cartesian:      0.001 s (10.608 %)
Storing new data                :      0.000 s ( 4.013 %)
Checking convergence            :      0.000 s ( 0.051 %)
GOAT stuff                      :      0.000 s ( 0.000 %)
Final printing                  :      0.001 s (15.018 %)
Total time                      :      0.008 s

Time for energy+gradient        :      0.742 s
Time for complete geometry iter :      0.767 s

         *************************************************************
         *                GEOMETRY OPTIMIZATION CYCLE  12            *
         *************************************************************
------------------------------------------------------------------------------
                         ORCA GEOMETRY RELAXATION STEP
------------------------------------------------------------------------------

Reading the OPT-File                    .... done

---------------------------------------------
FINAL SINGLE POINT ENERGY        -1.445986952394
---------------------------------------------

Getting information on internals        .... done
Copying old internal coords+grads       .... done
Making the new internal coordinates     .... (2022 redundants) done
Validating the new internal coordinates .... (2022 redundants) done
Calculating the B-matrix                .... done
Calculating the G,G- and P matrices     .... done
Transforming gradient to internals      .... done
Projecting the internal gradient        .... done
Number of atoms                         ....   9
Number of internal coordinates          ....  30
Current Energy                          ....    -1.445986952 Eh
Current gradient norm                   ....     0.009396331 Eh/bohr
Maximum allowed component of the step   ....  0.300
Current trust radius                    ....  0.700
Updating the Hessian (BFGS)             .... done
Making uphill step                      .... done
Uphill step size                        .... 0.154366
Stopped uphill after  11 steps          .... angle > 90
Converting the step to Cartesian space:
 Initial RMS(Int)=    0.0281832880
Transforming coordinates:
 Iter   0:  RMS(Cart)=    0.0254879010 RMS(Int)=    0.0281163158
 Iter   5:  RMS(Cart)=    0.0000000087 RMS(Int)=    0.0000000101
Imposing constraints:
 Iter   0:  RMS(Cart)=    0.0000000002 RMS(Int)=    0.0000000000
CONVERGED
done
Storing new coordinates                 .... done
The predicted energy change is          ....    -0.000072977
Previously predicted energy change      ....    -0.000129402
Actually observed energy change         ....    -0.000209721
Ratio of predicted to observed change   ....     1.620689300
New trust radius                        ....     0.466666667

                                .--------------------.
          ----------------------|Geometry convergence|-------------------------
          Item                value                   Tolerance       Converged
          ---------------------------------------------------------------------
          Energy change      -0.0002097206            0.0000050000      NO
          RMS gradient        0.0011216014            0.0001000000      NO
          MAX gradient        0.0033531839            0.0003000000      NO
          RMS step            0.0281832880            0.0020000000      NO
          MAX step            0.0780128303            0.0040000000      NO
          ........................................................
          Max(Bonds)      0.0000      Max(Angles)    0.75
          Max(Dihed)        4.47      Max(Improp)    0.00
          ---------------------------------------------------------------------

Geometry step timings:
Preparation and reading OPT file:      0.000 s ( 7.028 %)
Internal coordinates            :      0.000 s ( 0.147 %)
B/P matrices and projection     :      0.000 s ( 1.720 %)
Hessian update/contruction      :      0.003 s (40.185 %)
Making the step                 :      0.001 s (18.865 %)
Converting the step to Cartesian:      0.001 s ( 7.661 %)
Storing new data                :      0.000 s ( 4.514 %)
Checking convergence            :      0.000 s ( 0.074 %)
GOAT stuff                      :      0.000 s ( 0.015 %)
Final printing                  :      0.001 s (19.747 %)
Total time                      :      0.007 s

Time for energy+gradient        :      0.726 s
Time for complete geometry iter :      0.750 s

         *************************************************************
         *                GEOMETRY OPTIMIZATION CYCLE  13            *
         *************************************************************
------------------------------------------------------------------------------
                         ORCA GEOMETRY RELAXATION STEP
------------------------------------------------------------------------------

Reading the OPT-File                    .... done

---------------------------------------------
FINAL SINGLE POINT ENERGY        -1.446006999212
---------------------------------------------

Getting information on internals        .... done
Copying old internal coords+grads       .... done
Making the new internal coordinates     .... (2022 redundants) done
Validating the new internal coordinates .... (2022 redundants) done
Calculating the B-matrix                .... done
Calculating the G,G- and P matrices     .... done
Transforming gradient to internals      .... done
Projecting the internal gradient        .... done
Number of atoms                         ....   9
Number of internal coordinates          ....  30
Current Energy                          ....    -1.446006999 Eh
Current gradient norm                   ....     0.008233853 Eh/bohr
Maximum allowed component of the step   ....  0.300
Current trust radius                    ....  0.300
Evaluating the initial hessian          ....  (Almloef) done
Projecting the Hessian                  .... done
Forming the augmented Hessian           .... done
Diagonalizing the augmented Hessian     .... done
Last element of RFO vector              ....  0.999740322
Lowest eigenvalues of augmented Hessian:
 -0.000089431  0.012724511  0.021297567  0.097173171  0.126439645
Length of the computed step             ....  0.022793832
The final length of the internal step   ....  0.022793832
Converting the step to Cartesian space:
 Initial RMS(Int)=    0.0041615653
Transforming coordinates:
 Iter   0:  RMS(Cart)=    0.0046359633 RMS(Int)=    0.0041639599
done
Storing new coordinates                 .... done
The predicted energy change is          ....    -0.000044738
Previously predicted energy change      ....    -0.000072977
Actually observed energy change         ....    -0.000020047
Ratio of predicted to observed change   ....     0.274702264
New trust radius                        ....     0.311111111

                                .--------------------.
          ----------------------|Geometry convergence|-------------------------
          Item                value                   Tolerance       Converged
          ---------------------------------------------------------------------
          Energy change      -0.0000200468            0.0000050000      NO
          RMS gradient        0.0010330905            0.0001000000      NO
          MAX gradient        0.0041341958            0.0003000000      NO
          RMS step            0.0041615653            0.0020000000      NO
          MAX step            0.0103220067            0.0040000000      NO
          ........................................................
          Max(Bonds)      0.0055      Max(Angles)    0.22
          Max(Dihed)        0.46      Max(Improp)    0.00
          ---------------------------------------------------------------------

Geometry step timings:
Preparation and reading OPT file:      0.001 s (16.111 %)
Internal coordinates            :      0.000 s ( 0.263 %)
B/P matrices and projection     :      0.000 s ( 2.872 %)
Hessian update/contruction      :      0.002 s (49.496 %)
Making the step                 :      0.000 s ( 1.622 %)
Converting the step to Cartesian:      0.000 s ( 0.307 %)
Storing new data                :      0.000 s ( 6.861 %)
Checking convergence            :      0.000 s ( 0.088 %)
GOAT stuff                      :      0.000 s ( 0.000 %)
Final printing                  :      0.001 s (22.315 %)
Total time                      :      0.005 s

Time for energy+gradient        :      0.713 s
Time for complete geometry iter :      0.734 s

         *************************************************************
         *                GEOMETRY OPTIMIZATION CYCLE  14            *
         *************************************************************
------------------------------------------------------------------------------
                         ORCA GEOMETRY RELAXATION STEP
------------------------------------------------------------------------------

Reading the OPT-File                    .... done

---------------------------------------------
FINAL SINGLE POINT ENERGY        -1.445913914685
---------------------------------------------

Getting information on internals        .... done
Copying old internal coords+grads       .... done
Making the new internal coordinates     .... (2022 redundants) done
Validating the new internal coordinates .... (2022 redundants) done
Calculating the B-matrix                .... done
Calculating the G,G- and P matrices     .... done
Transforming gradient to internals      .... done
Projecting the internal gradient        .... done
Number of atoms                         ....   9
Number of internal coordinates          ....  30
Current Energy                          ....    -1.445913915 Eh
Current gradient norm                   ....     0.003507931 Eh/bohr
Maximum allowed component of the step   ....  0.300
Current trust radius                    ....  0.311
Updating the Hessian (BFGS)             .... done
Forming the augmented Hessian           .... done
Diagonalizing the augmented Hessian     .... done
Last element of RFO vector              ....  0.999368033
Lowest eigenvalues of augmented Hessian:
 -0.000043263  0.011437784  0.021118456  0.092376557  0.126484347
Length of the computed step             ....  0.035568723
The final length of the internal step   ....  0.035568723
Converting the step to Cartesian space:
 Initial RMS(Int)=    0.0064939306
Transforming coordinates:
 Iter   0:  RMS(Cart)=    0.0067589236 RMS(Int)=    0.0064978984
done
Storing new coordinates                 .... done
The predicted energy change is          ....    -0.000021659
Previously predicted energy change      ....    -0.000044738
Actually observed energy change         ....     0.000093085
Ratio of predicted to observed change   ....     2.080636548
New trust radius                        ....     0.207407407

                                .--------------------.
          ----------------------|Geometry convergence|-------------------------
          Item                value                   Tolerance       Converged
          ---------------------------------------------------------------------
          Energy change       0.0000930845            0.0000050000      NO
          RMS gradient        0.0004163900            0.0001000000      NO
          MAX gradient        0.0008660194            0.0003000000      NO
          RMS step            0.0064939306            0.0020000000      NO
          MAX step            0.0144780567            0.0040000000      NO
          ........................................................
          Max(Bonds)      0.0031      Max(Angles)    0.40
          Max(Dihed)        0.83      Max(Improp)    0.00
          ---------------------------------------------------------------------

Geometry step timings:
Preparation and reading OPT file:      0.000 s (10.689 %)
Internal coordinates            :      0.000 s ( 0.227 %)
B/P matrices and projection     :      0.000 s ( 2.775 %)
Hessian update/contruction      :      0.002 s (54.423 %)
Making the step                 :      0.000 s ( 1.683 %)
Converting the step to Cartesian:      0.000 s ( 0.318 %)
Storing new data                :      0.000 s ( 7.278 %)
Checking convergence            :      0.000 s ( 0.114 %)
GOAT stuff                      :      0.000 s ( 0.000 %)
Final printing                  :      0.001 s (22.447 %)
Total time                      :      0.004 s

Time for energy+gradient        :      0.742 s
Time for complete geometry iter :      0.764 s

         *************************************************************
         *                GEOMETRY OPTIMIZATION CYCLE  15            *
         *************************************************************
------------------------------------------------------------------------------
                         ORCA GEOMETRY RELAXATION STEP
------------------------------------------------------------------------------

Reading the OPT-File                    .... done

---------------------------------------------
FINAL SINGLE POINT ENERGY        -1.445903680995
---------------------------------------------

Getting information on internals        .... done
Copying old internal coords+grads       .... done
Making the new internal coordinates     .... (2022 redundants) done
Validating the new internal coordinates .... (2022 redundants) done
Calculating the B-matrix                .... done
Calculating the G,G- and P matrices     .... done
Transforming gradient to internals      .... done
Projecting the internal gradient        .... done
Number of atoms                         ....   9
Number of internal coordinates          ....  30
Current Energy                          ....    -1.445903681 Eh
Current gradient norm                   ....     0.001726882 Eh/bohr
Maximum allowed component of the step   ....  0.300
Current trust radius                    ....  0.207
Updating the Hessian (BFGS)             .... done
Forming the augmented Hessian           .... done
Diagonalizing the augmented Hessian     .... done
Last element of RFO vector              ....  0.999111356
Lowest eigenvalues of augmented Hessian:
 -0.000019699  0.007653081  0.020746943  0.086504420  0.125997503
Length of the computed step             ....  0.042186017
The final length of the internal step   ....  0.042186017
Converting the step to Cartesian space:
 Initial RMS(Int)=    0.0077020777
Transforming coordinates:
 Iter   0:  RMS(Cart)=    0.0083973588 RMS(Int)=    0.0077041889
done
Storing new coordinates                 .... done
The predicted energy change is          ....    -0.000009867
Previously predicted energy change      ....    -0.000021659
Actually observed energy change         ....     0.000010234
Ratio of predicted to observed change   ....     0.472488900
New trust radius                        ....     0.138271605

                                .--------------------.
          ----------------------|Geometry convergence|-------------------------
          Item                value                   Tolerance       Converged
          ---------------------------------------------------------------------
          Energy change       0.0000102337            0.0000050000      NO
          RMS gradient        0.0002488528            0.0001000000      NO
          MAX gradient        0.0008148743            0.0003000000      NO
          RMS step            0.0077020777            0.0020000000      NO
          MAX step            0.0180413431            0.0040000000      NO
          ........................................................
          Max(Bonds)      0.0013      Max(Angles)    0.38
          Max(Dihed)        1.03      Max(Improp)    0.00
          ---------------------------------------------------------------------

Geometry step timings:
Preparation and reading OPT file:      0.000 s ( 9.216 %)
Internal coordinates            :      0.000 s ( 0.226 %)
B/P matrices and projection     :      0.000 s ( 2.801 %)
Hessian update/contruction      :      0.002 s (53.919 %)
Making the step                 :      0.000 s ( 1.897 %)
Converting the step to Cartesian:      0.000 s ( 0.452 %)
Storing new data                :      0.000 s ( 6.460 %)
Checking convergence            :      0.000 s ( 0.113 %)
GOAT stuff                      :      0.000 s ( 0.000 %)
Final printing                  :      0.001 s (24.893 %)
Total time                      :      0.004 s

Time for energy+gradient        :      0.725 s
Time for complete geometry iter :      0.745 s

         *************************************************************
         *                GEOMETRY OPTIMIZATION CYCLE  16            *
         *************************************************************
------------------------------------------------------------------------------
                         ORCA GEOMETRY RELAXATION STEP
------------------------------------------------------------------------------

Reading the OPT-File                    .... done

---------------------------------------------
FINAL SINGLE POINT ENERGY        -1.446135410999
---------------------------------------------

Getting information on internals        .... done
Copying old internal coords+grads       .... done
Making the new internal coordinates     .... (2022 redundants) done
Validating the new internal coordinates .... (2022 redundants) done
Calculating the B-matrix                .... done
Calculating the G,G- and P matrices     .... done
Transforming gradient to internals      .... done
Projecting the internal gradient        .... done
Number of atoms                         ....   9
Number of internal coordinates          ....  30
Current Energy                          ....    -1.446135411 Eh
Current gradient norm                   ....     0.002443816 Eh/bohr
Maximum allowed component of the step   ....  0.300
Current trust radius                    ....  0.138
Updating the Hessian (BFGS)             .... done
Forming the augmented Hessian           .... done
Diagonalizing the augmented Hessian     .... done
Last element of RFO vector              ....  0.992650402
Lowest eigenvalues of augmented Hessian:
 -0.000041927  0.002467746  0.020792108  0.093052474  0.123972649
Length of the computed step             ....  0.121913280
The final length of the internal step   ....  0.121913280
Converting the step to Cartesian space:
 Initial RMS(Int)=    0.0222582178
Transforming coordinates:
 Iter   0:  RMS(Cart)=    0.0247754719 RMS(Int)=    0.0222655779
done
Storing new coordinates                 .... done
The predicted energy change is          ....    -0.000021275
Previously predicted energy change      ....    -0.000009867
Actually observed energy change         ....    -0.000231730
Ratio of predicted to observed change   ....    23.485327068
New trust radius                        ....     0.100000000

                                .--------------------.
          ----------------------|Geometry convergence|-------------------------
          Item                value                   Tolerance       Converged
          ---------------------------------------------------------------------
          Energy change      -0.0002317300            0.0000050000      NO
          RMS gradient        0.0002815577            0.0001000000      NO
          MAX gradient        0.0010933590            0.0003000000      NO
          RMS step            0.0222582178            0.0020000000      NO
          MAX step            0.0527914689            0.0040000000      NO
          ........................................................
          Max(Bonds)      0.0016      Max(Angles)    0.84
          Max(Dihed)        3.02      Max(Improp)    0.00
          ---------------------------------------------------------------------

Geometry step timings:
Preparation and reading OPT file:      0.001 s (18.456 %)
Internal coordinates            :      0.000 s ( 0.217 %)
B/P matrices and projection     :      0.000 s ( 2.369 %)
Hessian update/contruction      :      0.002 s (48.914 %)
Making the step                 :      0.000 s ( 1.461 %)
Converting the step to Cartesian:      0.000 s ( 0.316 %)
Storing new data                :      0.000 s ( 6.001 %)
Checking convergence            :      0.000 s ( 0.099 %)
GOAT stuff                      :      0.000 s ( 0.000 %)
Final printing                  :      0.001 s (22.108 %)
Total time                      :      0.005 s

Time for energy+gradient        :      0.732 s
Time for complete geometry iter :      0.753 s

         *************************************************************
         *                GEOMETRY OPTIMIZATION CYCLE  17            *
         *************************************************************
------------------------------------------------------------------------------
                         ORCA GEOMETRY RELAXATION STEP
------------------------------------------------------------------------------

Reading the OPT-File                    .... done

---------------------------------------------
FINAL SINGLE POINT ENERGY        -1.446082980859
---------------------------------------------

Getting information on internals        .... done
Copying old internal coords+grads       .... done
Making the new internal coordinates     .... (2022 redundants) done
Validating the new internal coordinates .... (2022 redundants) done
Calculating the B-matrix                .... done
Calculating the G,G- and P matrices     .... done
Transforming gradient to internals      .... done
Projecting the internal gradient        .... done
Number of atoms                         ....   9
Number of internal coordinates          ....  30
Current Energy                          ....    -1.446082981 Eh
Current gradient norm                   ....     0.003737967 Eh/bohr
Maximum allowed component of the step   ....  0.300
Current trust radius                    ....  0.100
Updating the Hessian (BFGS)             .... done
Forming the augmented Hessian           .... done
Diagonalizing the augmented Hessian     .... done
Last element of RFO vector              ....  0.954061170
Lowest eigenvalues of augmented Hessian:
 -0.000089685  0.000784448  0.021041542  0.098111964  0.124069033
Length of the computed step             ....  0.314038447
Warning: the length of the step is outside the trust region - taking restricted step instead
The input lambda is                     ....    -0.000294
   iter:   5  x=   -0.001796  g=    8.194055 f(x)=     0.000187
The output lambda is                    ....    -0.001796 (8 iterations)
The final length of the internal step   ....  0.100000000
Converting the step to Cartesian space:
 Initial RMS(Int)=    0.0182574186
Transforming coordinates:
 Iter   0:  RMS(Cart)=    0.0206572735 RMS(Int)=    0.0182595255
done
Storing new coordinates                 .... done
The predicted energy change is          ....    -0.000027047
Previously predicted energy change      ....    -0.000021275
Actually observed energy change         ....     0.000052430
Ratio of predicted to observed change   ....     2.464363185
New trust radius                        ....     0.100000000

                                .--------------------.
          ----------------------|Geometry convergence|-------------------------
          Item                value                   Tolerance       Converged
          ---------------------------------------------------------------------
          Energy change       0.0000524301            0.0000050000      NO
          RMS gradient        0.0003990697            0.0001000000      NO
          MAX gradient        0.0009047867            0.0003000000      NO
          RMS step            0.0182574186            0.0020000000      NO
          MAX step            0.0435078820            0.0040000000      NO
          ........................................................
          Max(Bonds)      0.0011      Max(Angles)    0.47
          Max(Dihed)        2.49      Max(Improp)    0.00
          ---------------------------------------------------------------------

Geometry step timings:
Preparation and reading OPT file:      0.001 s (14.450 %)
Internal coordinates            :      0.000 s ( 0.184 %)
B/P matrices and projection     :      0.000 s ( 2.196 %)
Hessian update/contruction      :      0.004 s (54.699 %)
Making the step                 :      0.000 s ( 2.073 %)
Converting the step to Cartesian:      0.000 s ( 0.292 %)
Storing new data                :      0.000 s ( 6.342 %)
Checking convergence            :      0.000 s ( 0.077 %)
GOAT stuff                      :      0.000 s ( 0.000 %)
Final printing                  :      0.001 s (19.656 %)
Total time                      :      0.007 s

Time for energy+gradient        :      0.788 s
Time for complete geometry iter :      1.079 s

         *************************************************************
         *                GEOMETRY OPTIMIZATION CYCLE  18            *
         *************************************************************
------------------------------------------------------------------------------
                         ORCA GEOMETRY RELAXATION STEP
------------------------------------------------------------------------------

Reading the OPT-File                    .... done

---------------------------------------------
FINAL SINGLE POINT ENERGY        -1.446291720106
---------------------------------------------

Getting information on internals        .... done
Copying old internal coords+grads       .... done
Making the new internal coordinates     .... (2022 redundants) done
Validating the new internal coordinates .... (2022 redundants) done
Calculating the B-matrix                .... done
Calculating the G,G- and P matrices     .... done
Transforming gradient to internals      .... done
Projecting the internal gradient        .... done
Number of atoms                         ....   9
Number of internal coordinates          ....  30
Current Energy                          ....    -1.446291720 Eh
Current gradient norm                   ....     0.003608393 Eh/bohr
Maximum allowed component of the step   ....  0.300
Current trust radius                    ....  0.100
Updating the Hessian (BFGS)             .... done
Forming the augmented Hessian           .... done
Diagonalizing the augmented Hessian     .... done
Last element of RFO vector              ....  0.954208635
Lowest eigenvalues of augmented Hessian:
 -0.000093516  0.000784528  0.021041697  0.098112661  0.124068928
Length of the computed step             ....  0.313497382
Warning: the length of the step is outside the trust region - taking restricted step instead
The input lambda is                     ....    -0.000294
   iter:   5  x=   -0.001807  g=    8.143673 f(x)=     0.000193
The output lambda is                    ....    -0.001807 (8 iterations)
The final length of the internal step   ....  0.100000000
Converting the step to Cartesian space:
 Initial RMS(Int)=    0.0182574186
Transforming coordinates:
 Iter   0:  RMS(Cart)=    0.0208597713 RMS(Int)=    0.0182596504
done
Storing new coordinates                 .... done
The predicted energy change is          ....    -0.000028969
Previously predicted energy change      ....    -0.000027047
Actually observed energy change         ....    -0.000208739
Ratio of predicted to observed change   ....     7.717703012
New trust radius                        ....     0.100000000

                                .--------------------.
          ----------------------|Geometry convergence|-------------------------
          Item                value                   Tolerance       Converged
          ---------------------------------------------------------------------
          Energy change      -0.0002087392            0.0000050000      NO
          RMS gradient        0.0004164647            0.0001000000      NO
          MAX gradient        0.0008619662            0.0003000000      NO
          RMS step            0.0182574186            0.0020000000      NO
          MAX step            0.0431296435            0.0040000000      NO
          ........................................................
          Max(Bonds)      0.0006      Max(Angles)    0.36
          Max(Dihed)        2.47      Max(Improp)    0.00
          ---------------------------------------------------------------------

Geometry step timings:
Preparation and reading OPT file:      0.001 s (16.370 %)
Internal coordinates            :      0.000 s ( 0.194 %)
B/P matrices and projection     :      0.000 s ( 2.148 %)
Hessian update/contruction      :      0.003 s (51.611 %)
Making the step                 :      0.000 s ( 2.306 %)
Converting the step to Cartesian:      0.000 s ( 0.317 %)
Storing new data                :      0.000 s ( 6.707 %)
Checking convergence            :      0.000 s ( 0.070 %)
GOAT stuff                      :      0.000 s ( 0.000 %)
Final printing                  :      0.001 s (20.225 %)
Total time                      :      0.006 s

Time for energy+gradient        :      0.705 s
Time for complete geometry iter :      0.729 s

         *************************************************************
         *                GEOMETRY OPTIMIZATION CYCLE  19            *
         *************************************************************
------------------------------------------------------------------------------
                         ORCA GEOMETRY RELAXATION STEP
------------------------------------------------------------------------------

Reading the OPT-File                    .... done

---------------------------------------------
FINAL SINGLE POINT ENERGY        -1.446205084206
---------------------------------------------

Getting information on internals        .... done
Copying old internal coords+grads       .... done
Making the new internal coordinates     .... (2022 redundants) done
Validating the new internal coordinates .... (2022 redundants) done
Calculating the B-matrix                .... done
Calculating the G,G- and P matrices     .... done
Transforming gradient to internals      .... done
Projecting the internal gradient        .... done
Number of atoms                         ....   9
Number of internal coordinates          ....  30
Current Energy                          ....    -1.446205084 Eh
Current gradient norm                   ....     0.003925040 Eh/bohr
Maximum allowed component of the step   ....  0.300
Current trust radius                    ....  0.100
Updating the Hessian (BFGS)             .... done
Forming the augmented Hessian           .... done
Diagonalizing the augmented Hessian     .... done
Last element of RFO vector              ....  0.949005449
Lowest eigenvalues of augmented Hessian:
 -0.000112797  0.000796267  0.021041932  0.098113267  0.124068963
Length of the computed step             ....  0.332200062
Warning: the length of the step is outside the trust region - taking restricted step instead
The input lambda is                     ....    -0.000294
   iter:   5  x=   -0.002026  g=    7.643721 f(x)=     0.000359
The output lambda is                    ....    -0.002027 (8 iterations)
The final length of the internal step   ....  0.100000000
Converting the step to Cartesian space:
 Initial RMS(Int)=    0.0182574186
Transforming coordinates:
 Iter   0:  RMS(Cart)=    0.0210455614 RMS(Int)=    0.0182592553
done
Storing new coordinates                 .... done
The predicted energy change is          ....    -0.000034820
Previously predicted energy change      ....    -0.000028969
Actually observed energy change         ....     0.000086636
Ratio of predicted to observed change   ....     2.990593613
New trust radius                        ....     0.100000000

                                .--------------------.
          ----------------------|Geometry convergence|-------------------------
          Item                value                   Tolerance       Converged
          ---------------------------------------------------------------------
          Energy change       0.0000866359            0.0000050000      NO
          RMS gradient        0.0004808565            0.0001000000      NO
          MAX gradient        0.0009305266            0.0003000000      NO
          RMS step            0.0182574186            0.0020000000      NO
          MAX step            0.0428245308            0.0040000000      NO
          ........................................................
          Max(Bonds)      0.0005      Max(Angles)    0.27
          Max(Dihed)        2.45      Max(Improp)    0.00
          ---------------------------------------------------------------------

Geometry step timings:
Preparation and reading OPT file:      0.001 s (13.330 %)
Internal coordinates            :      0.000 s ( 0.191 %)
B/P matrices and projection     :      0.000 s ( 2.167 %)
Hessian update/contruction      :      0.003 s (56.041 %)
Making the step                 :      0.000 s ( 2.288 %)
Converting the step to Cartesian:      0.000 s ( 0.295 %)
Storing new data                :      0.000 s ( 8.164 %)
Checking convergence            :      0.000 s ( 0.069 %)
GOAT stuff                      :      0.000 s ( 0.000 %)
Final printing                  :      0.001 s (17.438 %)
[...]
Converting the step to Cartesian space:
 Initial RMS(Int)=    0.0182574186
Transforming coordinates:
 Iter   0:  RMS(Cart)=    0.0149712941 RMS(Int)=    1.1449148920
done
Storing new coordinates                 .... done
The predicted energy change is          ....    -0.000172227
Previously predicted energy change      ....    -0.000121037
Actually observed energy change         ....    -0.000126589
Ratio of predicted to observed change   ....     1.045876482
New trust radius                        ....     0.150000000

                                .--------------------.
          ----------------------|Geometry convergence|-------------------------
          Item                value                   Tolerance       Converged
          ---------------------------------------------------------------------
          Energy change      -0.0001265893            0.0000050000      NO
          RMS gradient        0.0006783640            0.0001000000      NO
          MAX gradient        0.0020242178            0.0003000000      NO
          RMS step            0.0182574186            0.0020000000      NO
          MAX step            0.0443996947            0.0040000000      NO
          ........................................................
          Max(Bonds)      0.0015      Max(Angles)    2.54
          Max(Dihed)        2.20      Max(Improp)    0.00
          ---------------------------------------------------------------------

Geometry step timings:
Preparation and reading OPT file:      0.001 s (16.560 %)
Internal coordinates            :      0.000 s ( 0.208 %)
B/P matrices and projection     :      0.000 s ( 2.158 %)
Hessian update/contruction      :      0.003 s (51.966 %)
Making the step                 :      0.000 s ( 2.158 %)
Converting the step to Cartesian:      0.000 s ( 0.288 %)
Storing new data                :      0.000 s ( 5.786 %)
Checking convergence            :      0.000 s ( 0.064 %)
GOAT stuff                      :      0.000 s ( 0.000 %)
Final printing                  :      0.001 s (20.780 %)
Total time                      :      0.006 s

Time for energy+gradient        :      0.771 s
Time for complete geometry iter :      0.798 s

         *************************************************************
         *                GEOMETRY OPTIMIZATION CYCLE 694            *
         *************************************************************
------------------------------------------------------------------------------
                         ORCA GEOMETRY RELAXATION STEP
------------------------------------------------------------------------------

Reading the OPT-File                    .... done

---------------------------------------------
FINAL SINGLE POINT ENERGY        -1.447748268647
---------------------------------------------

Getting information on internals        .... done
Copying old internal coords+grads       .... done
Making the new internal coordinates     .... (2022 redundants) done
Validating the new internal coordinates .... (2022 redundants) done
Calculating the B-matrix                .... done
Calculating the G,G- and P matrices     .... done
Transforming gradient to internals      .... done
Projecting the internal gradient        .... done
Number of atoms                         ....   9
Number of internal coordinates          ....  30
Current Energy                          ....    -1.447748269 Eh
Current gradient norm                   ....     0.003399950 Eh/bohr
Maximum allowed component of the step   ....  0.300
Current trust radius                    ....  0.150
Updating the Hessian (BFGS)             .... done
Forming the augmented Hessian           .... done
Diagonalizing the augmented Hessian     .... done
Last element of RFO vector              ....  0.720663110
Lowest eigenvalues of augmented Hessian:
 -0.000986165  0.000906983  0.010326760  0.014772964  0.069250373
Length of the computed step             ....  0.962010426
Warning: the length of the step is outside the trust region - taking restricted step instead
The input lambda is                     ....    -0.000999
   iter:   5  x=   -0.005644  g=   21.171269 f(x)=     0.026103
   iter:  10  x=   -0.006616  g=    6.381130 f(x)=     0.000000
The output lambda is                    ....    -0.006616 (11 iterations)
The final length of the internal step   ....  0.150000000
Converting the step to Cartesian space:
 Initial RMS(Int)=    0.0273861279
Transforming coordinates:
 Iter   0:  RMS(Cart)=    0.0232215700 RMS(Int)=    0.0273590814
 Iter   5:  RMS(Cart)=    0.0000000338 RMS(Int)=    0.0000000374
done
Storing new coordinates                 .... done
The predicted energy change is          ....    -0.000172896
Previously predicted energy change      ....    -0.000172227
Actually observed energy change         ....    -0.000019486
Ratio of predicted to observed change   ....     0.113141452
New trust radius                        ....     0.100000000

                                .--------------------.
          ----------------------|Geometry convergence|-------------------------
          Item                value                   Tolerance       Converged
          ---------------------------------------------------------------------
          Energy change      -0.0000194861            0.0000050000      NO
          RMS gradient        0.0005447212            0.0001000000      NO
          MAX gradient        0.0014728609            0.0003000000      NO
          RMS step            0.0273861279            0.0020000000      NO
          MAX step            0.0831493187            0.0040000000      NO
          ........................................................
          Max(Bonds)      0.0019      Max(Angles)    1.31
          Max(Dihed)        4.76      Max(Improp)    0.00
          ---------------------------------------------------------------------

Geometry step timings:
Preparation and reading OPT file:      0.001 s (15.169 %)
Internal coordinates            :      0.000 s ( 0.202 %)
B/P matrices and projection     :      0.000 s ( 2.183 %)
Hessian update/contruction      :      0.003 s (54.054 %)
Making the step                 :      0.000 s ( 2.403 %)
Converting the step to Cartesian:      0.000 s ( 0.312 %)
Storing new data                :      0.000 s ( 5.833 %)
Checking convergence            :      0.000 s ( 0.073 %)
GOAT stuff                      :      0.000 s ( 0.000 %)
Final printing                  :      0.001 s (19.754 %)
Total time                      :      0.005 s

Time for energy+gradient        :      0.674 s
Time for complete geometry iter :      0.696 s

         *************************************************************
         *                GEOMETRY OPTIMIZATION CYCLE 695            *
         *************************************************************
------------------------------------------------------------------------------
                         ORCA GEOMETRY RELAXATION STEP
------------------------------------------------------------------------------

Reading the OPT-File                    .... done

---------------------------------------------
FINAL SINGLE POINT ENERGY        -1.448074765428
---------------------------------------------

Getting information on internals        .... done
Copying old internal coords+grads       .... done
Making the new internal coordinates     .... (2022 redundants) done
Validating the new internal coordinates .... (2022 redundants) done
Calculating the B-matrix                .... done
Calculating the G,G- and P matrices     .... done
Transforming gradient to internals      .... done
Projecting the internal gradient        .... done
Number of atoms                         ....   9
Number of internal coordinates          ....  30
Current Energy                          ....    -1.448074765 Eh
Current gradient norm                   ....     0.002392819 Eh/bohr
Maximum allowed component of the step   ....  0.300
Current trust radius                    ....  0.100
Updating the Hessian (BFGS)             .... done
Forming the augmented Hessian           .... done
Diagonalizing the augmented Hessian     .... done
Last element of RFO vector              ....  0.736972269
Lowest eigenvalues of augmented Hessian:
 -0.000600944  0.000494725  0.006551702  0.010501528  0.072272756
Length of the computed step             ....  0.917162028
Warning: the length of the step is outside the trust region - taking restricted step instead
The input lambda is                     ....    -0.000997
   iter:   5  x=   -0.006002  g=    6.931816 f(x)=     0.009314
   iter:  10  x=   -0.006940  g=    2.357387 f(x)=     0.000000
The output lambda is                    ....    -0.006940 (10 iterations)
The final length of the internal step   ....  0.100000000
Converting the step to Cartesian space:
 Initial RMS(Int)=    0.0182574186
Transforming coordinates:
 Iter   0:  RMS(Cart)=    0.0162579484 RMS(Int)=    1.1461988111
done
Storing new coordinates                 .... done
The predicted energy change is          ....    -0.000084587
Previously predicted energy change      ....    -0.000172896
Actually observed energy change         ....    -0.000326497
Ratio of predicted to observed change   ....     1.888398630
New trust radius                        ....     0.100000000

                                .--------------------.
          ----------------------|Geometry convergence|-------------------------
          Item                value                   Tolerance       Converged
          ---------------------------------------------------------------------
          Energy change      -0.0003264968            0.0000050000      NO
          RMS gradient        0.0003068822            0.0001000000      NO
          MAX gradient        0.0005804916            0.0003000000      NO
          RMS step            0.0182574186            0.0020000000      NO
          MAX step            0.0536701794            0.0040000000      NO
          ........................................................
          Max(Bonds)      0.0006      Max(Angles)    1.08
          Max(Dihed)        3.08      Max(Improp)    0.00
          ---------------------------------------------------------------------

Geometry step timings:
Preparation and reading OPT file:      0.001 s (14.478 %)
Internal coordinates            :      0.000 s ( 0.195 %)
B/P matrices and projection     :      0.000 s ( 2.238 %)
Hessian update/contruction      :      0.003 s (52.968 %)
Making the step                 :      0.000 s ( 2.393 %)
Converting the step to Cartesian:      0.000 s ( 0.292 %)
Storing new data                :      0.000 s ( 8.348 %)
Checking convergence            :      0.000 s ( 0.078 %)
GOAT stuff                      :      0.000 s ( 0.000 %)
Final printing                  :      0.001 s (18.992 %)
Total time                      :      0.005 s

Time for energy+gradient        :      0.755 s
Time for complete geometry iter :      0.776 s

         *************************************************************
         *                GEOMETRY OPTIMIZATION CYCLE 696            *
         *************************************************************
------------------------------------------------------------------------------
                         ORCA GEOMETRY RELAXATION STEP
------------------------------------------------------------------------------

Reading the OPT-File                    .... done

---------------------------------------------
FINAL SINGLE POINT ENERGY        -1.448092429058
---------------------------------------------

Getting information on internals        .... done
Copying old internal coords+grads       .... done
Making the new internal coordinates     .... (2022 redundants) done
Validating the new internal coordinates .... (2022 redundants) done
Calculating the B-matrix                .... done
Calculating the G,G- and P matrices     .... done
Transforming gradient to internals      .... done
Projecting the internal gradient        .... done
Number of atoms                         ....   9
Number of internal coordinates          ....  30
Current Energy                          ....    -1.448092429 Eh
Current gradient norm                   ....     0.002172278 Eh/bohr
Maximum allowed component of the step   ....  0.300
Current trust radius                    ....  0.100
Updating the Hessian (BFGS)             .... done
Forming the augmented Hessian           .... done
Diagonalizing the augmented Hessian     .... done
Last element of RFO vector              ....  0.719917878
Lowest eigenvalues of augmented Hessian:
 -0.000620860  0.000573616  0.005898339  0.011613596  0.070777746
Length of the computed step             ....  0.964081148
Warning: the length of the step is outside the trust region - taking restricted step instead
The input lambda is                     ....    -0.000998
   iter:   5  x=   -0.005680  g=    8.557299 f(x)=     0.010471
   iter:  10  x=   -0.006565  g=    2.798600 f(x)=     0.000000
The output lambda is                    ....    -0.006565 (11 iterations)
The final length of the internal step   ....  0.100000000
Converting the step to Cartesian space:
 Initial RMS(Int)=    0.0182574186
Transforming coordinates:
 Iter   0:  RMS(Cart)=    0.0164923617 RMS(Int)=    0.0182380306
done
Storing new coordinates                 .... done
The predicted energy change is          ....    -0.000073312
Previously predicted energy change      ....    -0.000084587
Actually observed energy change         ....    -0.000017664
Ratio of predicted to observed change   ....     0.208822705
New trust radius                        ....     0.100000000

                                .--------------------.
          ----------------------|Geometry convergence|-------------------------
          Item                value                   Tolerance       Converged
          ---------------------------------------------------------------------
          Energy change      -0.0000176636            0.0000050000      NO
          RMS gradient        0.0002602535            0.0001000000      NO
          MAX gradient        0.0006235949            0.0003000000      NO
          RMS step            0.0182574186            0.0020000000      NO
          MAX step            0.0551604751            0.0040000000      NO
          ........................................................
          Max(Bonds)      0.0008      Max(Angles)    0.34
          Max(Dihed)        3.16      Max(Improp)    0.00
          ---------------------------------------------------------------------

Geometry step timings:
Preparation and reading OPT file:      0.000 s ( 7.872 %)
Internal coordinates            :      0.000 s ( 0.229 %)
B/P matrices and projection     :      0.000 s ( 2.144 %)
Hessian update/contruction      :      0.003 s (55.237 %)
Making the step                 :      0.000 s ( 2.668 %)
Converting the step to Cartesian:      0.000 s ( 0.393 %)
Storing new data                :      0.000 s ( 5.270 %)
Checking convergence            :      0.000 s ( 0.098 %)
GOAT stuff                      :      0.000 s ( 0.016 %)
Final printing                  :      0.002 s (26.039 %)
Total time                      :      0.006 s

Time for energy+gradient        :      0.639 s
Time for complete geometry iter :      0.720 s

         *************************************************************
         *                GEOMETRY OPTIMIZATION CYCLE 697            *
         *************************************************************
------------------------------------------------------------------------------
                         ORCA GEOMETRY RELAXATION STEP
------------------------------------------------------------------------------

Reading the OPT-File                    .... done

---------------------------------------------
FINAL SINGLE POINT ENERGY        -1.448321775874
---------------------------------------------

Getting information on internals        .... done
Copying old internal coords+grads       .... done
Making the new internal coordinates     .... (2022 redundants) done
Validating the new internal coordinates .... (2022 redundants) done
Calculating the B-matrix                .... done
Calculating the G,G- and P matrices     .... done
Transforming gradient to internals      .... done
Projecting the internal gradient        .... done
Number of atoms                         ....   9
Number of internal coordinates          ....  30
Current Energy                          ....    -1.448321776 Eh
Current gradient norm                   ....     0.001649531 Eh/bohr
Maximum allowed component of the step   ....  0.300
Current trust radius                    ....  0.100
Updating the Hessian (BFGS)             .... done
Forming the augmented Hessian           .... done
Diagonalizing the augmented Hessian     .... done
Last element of RFO vector              ....  0.936059956
Lowest eigenvalues of augmented Hessian:
 -0.000264380  0.000013609  0.001917753  0.011662320  0.067033449
Length of the computed step             ....  0.375873926
Warning: the length of the step is outside the trust region - taking restricted step instead
The input lambda is                     ....    -0.000988
   iter:   5  x=   -0.005394  g=    2.961370 f(x)=     0.000314
The output lambda is                    ....    -0.005396 (8 iterations)
The final length of the internal step   ....  0.100000000
Converting the step to Cartesian space:
 Initial RMS(Int)=    0.0182574186
Transforming coordinates:
 Iter   0:  RMS(Cart)=    0.0175189141 RMS(Int)=    0.0182444923
done
Storing new coordinates                 .... done
The predicted energy change is          ....    -0.000064525
Previously predicted energy change      ....    -0.000073312
Actually observed energy change         ....    -0.000229347
Ratio of predicted to observed change   ....     3.128359355
New trust radius                        ....     0.100000000

                                .--------------------.
          ----------------------|Geometry convergence|-------------------------
          Item                value                   Tolerance       Converged
          ---------------------------------------------------------------------
          Energy change      -0.0002293468            0.0000050000      NO
          RMS gradient        0.0002096570            0.0001000000      NO
          MAX gradient        0.0005223791            0.0003000000      NO
          RMS step            0.0182574186            0.0020000000      NO
          MAX step            0.0481286589            0.0040000000      NO
          ........................................................
          Max(Bonds)      0.0009      Max(Angles)    1.26
          Max(Dihed)        2.76      Max(Improp)    0.00
          ---------------------------------------------------------------------

Geometry step timings:
Preparation and reading OPT file:      0.001 s (16.234 %)
Internal coordinates            :      0.000 s ( 0.183 %)
B/P matrices and projection     :      0.000 s ( 2.301 %)
Hessian update/contruction      :      0.003 s (49.160 %)
Making the step                 :      0.000 s ( 2.264 %)
Converting the step to Cartesian:      0.000 s ( 0.310 %)
Storing new data                :      0.000 s ( 6.008 %)
Checking convergence            :      0.000 s ( 0.073 %)
GOAT stuff                      :      0.000 s ( 0.000 %)
Final printing                  :      0.001 s (23.448 %)
Total time                      :      0.005 s

Time for energy+gradient        :      0.719 s
Time for complete geometry iter :      0.741 s

         *************************************************************
         *                GEOMETRY OPTIMIZATION CYCLE 698            *
         *************************************************************
